     108
 i =       26, E =     -3255.5352091400
 Ti        15.7483153068      -10.7908357729        7.3260427770
 Ti        13.3262571009      -10.7774147270        9.2162282742
 Ti        10.9022703215      -12.6651936408        9.2161791083
 Ti        13.3263901406      -14.5560902693        9.2161191015
 Ti        10.9025654767      -16.4453015794        9.2163077837
  O        15.3251570074      -10.8071614292        9.2151859367
  O        13.7494027636      -10.7574609962        7.3250751501
  O        11.3266364258      -10.7686574079        9.2152674140
  O        16.1713987546      -12.6892291496        7.3247497812
  O        12.9020796893      -12.6577904838        9.2150561539
  O        10.4795052417      -12.6475259390        7.3250272611
  O        15.3253560154      -14.5867675323        9.2152342143
  O        13.7493274128      -14.5362905955        7.3250641638
  O        11.3264414099      -14.5480392709        9.2152178023
  O        12.9021366687      -16.4381751519        9.2158496199
  O        10.4795230521      -16.4291528592        7.3250092378
 Ti        15.7483035166      -10.7904420254       11.1064809978
 Ti        15.7482896034      -10.7908632792       14.8868668085
 Ti        13.3262513518      -10.7773225743       12.9966618275
 Ti        13.3262671685      -10.7787868958       16.7770586103
 Ti        10.9022813504      -12.6651171723       12.9967691111
 Ti        10.9023518121      -12.6664735567       16.7770850600
 Ti        13.3263918910      -14.5559692312       12.9965382805
 Ti        13.3263919449      -14.5573908374       16.7769162852
 Ti        10.9025406462      -16.4452267918       12.9965833932
 Ti        10.9025383836      -16.4466280748       16.7770478471
  O        15.3252195818      -10.8071508855       12.9956075815
  O        15.3251912041      -10.8073114207       16.7760157902
  O        13.7493418028      -10.7566002115       11.1055424807
  O        13.7494071054      -10.7574551666       14.8859542072
  O        11.3266562627      -10.7686005449       12.9956251796
  O        11.3267369577      -10.7700097285       16.7761362655
  O        16.1715038987      -12.6890260878       11.1051892090
  O        16.1714281255      -12.6892620439       14.8855891091
  O        12.9020660781      -12.6577188383       12.9963123469
  O        12.9021333062      -12.6591529240       16.7761653228
  O        10.4796460230      -12.6468683762       11.1054595972
  O        10.4795023329      -12.6474738126       14.8858992932
  O        15.3253423014      -14.5867970493       12.9955933833
  O        15.3253864409      -14.5871346036       16.7760195904
  O        13.7494400817      -14.5364045351       11.1055219372
  O        13.7493992551      -14.5361679237       14.8859659936
  O        11.3264124947      -14.5479525439       12.9955676799
  O        11.3264933082      -14.5493281083       16.7760859967
  O        12.9021153940      -16.4381276007       12.9955763752
  O        12.9021542420      -16.4393991126       16.7760551172
  O        10.4793775696      -16.4282908371       11.1054050135
  O        10.4794793982      -16.4291229663       14.8857852156
 Ti        18.1719208771      -12.6806881469        7.3260857310
 Ti        15.7484915573      -14.5704702717        7.3259255912
 Ti        18.1723774714      -16.4611698293        7.3260701674
  O        17.7488773836      -10.7989273928        7.3247928305
  O        18.5956285867      -12.6971783779        9.2151883931
  O        17.7482719907      -14.5787675759        7.3248858684
  O        18.5952479428      -16.4774154983        9.2151976520
  O        16.1725026894      -16.4680685901        7.3247613445
 Ti        18.1720476737      -12.6802956160       11.1065426241
 Ti        18.1719354657      -12.6807139160       14.8869924146
 Ti        15.7486211725      -14.5700699995       11.1063784705
 Ti        15.7485554380      -14.5705121560       14.8868145149
 Ti        18.1721757867      -16.4607480505       11.1064701799
 Ti        18.1723043051      -16.4611967294       14.8868407706
  O        17.7488686993      -10.7986522007       11.1052259617
  O        17.7488437281      -10.7989455442       14.8856454294
  O        18.5956230962      -12.6971691754       12.9956134972
  O        18.5956120360      -12.6974579956       16.7760225275
  O        17.7483391012      -14.5785503411       11.1052025809
  O        17.7483474055      -14.5787792463       14.8855191612
  O        18.5952272328      -16.4774538545       12.9955834150
  O        18.5952264449      -16.4775474145       16.7759870604
  O        16.1724137694      -16.4678160435       11.1051578587
  O        16.1724624350      -16.4680480631       14.8855477764
 Ti        13.3261336067       -6.9971263684        9.2163083530
 Ti        10.9024935090       -8.8859708883        9.2163958724
  O        15.3253336555       -7.0285060277        9.2151837904
  O        13.7494151657       -6.9775760635        7.3251743499
  O        11.3266072353       -6.9886268833        9.2152244757
  O        12.9026678760       -8.8784598470        9.2153829637
  O        10.4794406252       -8.8682326268        7.3251085266
 Ti        13.3261061425       -6.9970500983       12.9966622422
 Ti        13.3260905753       -6.9984740286       16.7770677022
 Ti        10.9025038725       -8.8858837137       12.9967398183
 Ti        10.9024494823       -8.8872195682       16.7771672773
  O        15.3253601753       -7.0284946658       12.9955954005
  O        15.3252716927       -7.0286791534       16.7760210144
  O        13.7495297054       -6.9765464255       11.1055942032
  O        13.7494646154       -6.9775689409       14.8859182919
  O        11.3265833872       -6.9886261966       12.9957020933
  O        11.3265130110       -6.9898523626       16.7761931447
  O        12.9026954367       -8.8784187980       12.9957358158
  O        12.9025694523       -8.8796815040       16.7760141265
  O        10.4794298317       -8.8673659493       11.1055444087
  O        10.4794482603       -8.8681666931       14.8859318484
 Ti        15.7479709241       -7.0113678752        7.3260930782
 Ti        18.1723790448       -8.9012815603        7.3262232658
  O        17.7477472698       -7.0199551977        7.3248093293
  O        18.5950251984       -8.9179472533        9.2152365865
  O        16.1729504713       -8.9099066232        7.3247011372
 Ti        15.7479270759       -7.0109134981       11.1064621113
 Ti        15.7479305496       -7.0113697767       14.8868299324
 Ti        18.1723644847       -8.9008274163       11.1066131664
 Ti        18.1723846155       -8.9013099324       14.8870027740
  O        17.7477035894       -7.0196451154       11.1052263912
  O        17.7477625470       -7.0199260380       14.8857843921
  O        18.5950185314       -8.9179220522       12.9956369410
  O        18.5950816719       -8.9183434639       16.7760774502
  O        16.1729003128       -8.9096103774       11.1051183794
  O        16.1729906277       -8.9098938164       14.8855286828
