669
Lattice="12.745532 0.0 0.0 0.0 13.399023 0.0 0.0 0.0 40.985034" Properties=species:S:1:pos:R:3 Atoms.=T Timestep:=T 0=T pbc="T T T"
H        8.66250000       1.88530000      13.47400000
H        5.44130000       2.43530000      22.33600000
H        6.42870000       3.68850000      22.25840000
H        8.83270000       3.59870000      16.10230000
H        9.80510000       4.25440000      15.02550000
H        1.34720000       7.33750000      10.37160000
H        2.68650000       8.23960000       8.96900000
H        3.48080000       6.23770000      13.18940000
H        2.78060000       4.84600000      13.67070000
H       10.59850000       8.46550000      27.87930000
H        9.19020000       7.73070000      28.20890000
H        2.36890000       8.77650000      17.10430000
H        3.82620000       8.60590000      17.80050000
H        2.26110000       9.07510000      27.61630000
H        1.85430000       9.26930000      28.99060000
H        3.66900000      13.32490000      23.21360000
H        2.08710000       0.17360000      22.95810000
H        6.08620000       2.86030000      27.68620000
H        5.97560000       3.58580000      29.11210000
H        3.61370000       8.82090000      13.25950000
H        2.65590000       8.07440000      12.11680000
H       10.14010000       5.31540000      16.99690000
H       10.90870000       6.70800000      17.49170000
H        0.61330000       2.63090000      25.75080000
H       11.94970000       2.24830000      25.88160000
H       12.47660000       5.14750000      26.96400000
H        1.08150000       4.86010000      27.66540000
H        9.49510000       0.82150000      17.63440000
H        8.27380000      13.36390000      18.44320000
H        3.65800000       0.78160000      28.44530000
H        8.00100000      12.19440000      25.83050000
H        9.52790000      12.16680000      25.62510000
H        5.06350000      13.10720000      13.09270000
H        4.14930000      13.24270000      11.83610000
H       10.31860000       1.84850000      16.06740000
H       11.36390000       0.73020000      15.73500000
H        8.80240000       1.78600000      23.92520000
H        8.21490000       2.47860000      25.31660000
H        4.23060000      12.91100000      19.03230000
H        4.38170000      11.60580000      19.83260000
H        6.19750000       8.37220000      24.96070000
H        6.80310000       7.05860000      25.26690000
H       10.13190000       8.14050000      19.67080000
H        9.24760000       8.30380000      21.02450000
H        2.62510000       1.40350000      24.78250000
H        3.47800000       2.59960000      25.33420000
H        4.34620000       9.33200000      20.30380000
H        3.01330000      10.17650000      21.05500000
H        3.35010000       0.94630000      26.88310000
H        4.75670000       9.74760000      23.57920000
H        9.23340000       0.01230000      22.81040000
H        9.27440000       1.19070000      21.88370000
H        4.88810000       3.06010000      18.96070000
H        3.36850000       2.90640000      18.46820000
H        0.58640000       1.32020000      20.47710000
H       12.43680000       1.49870000      21.73970000
H        7.03470000       4.18760000      17.07150000
H        6.54320000       5.68630000      17.18790000
H       11.78010000       4.89550000      25.02500000
H       10.70480000       5.88000000      24.68800000
H        4.00900000       4.87020000      30.33720000
H        4.33220000       5.74360000      29.07900000
H       10.38050000       8.91120000      23.07280000
H        9.23630000       7.92180000      23.25260000
H        3.25130000       9.96110000      24.04680000
H        2.90560000       1.29310000       8.82830000
H        5.51650000       0.22880000      25.50120000
H        9.37840000      10.13040000      20.49440000
H        1.41780000       3.22900000      13.83410000
H        8.74110000       9.85440000      29.74210000
H       11.33730000       9.76020000      29.87530000
H       12.66250000       2.43190000      11.96420000
H       11.75630000       3.36950000      13.08580000
H        6.64370000       0.83280000      14.31980000
H        5.40320000       1.01280000      15.08700000
H        9.94390000       1.29160000      25.66710000
H       10.40700000       0.34160000      26.91500000
H       11.14290000       6.54470000      22.08580000
H       12.14370000       5.22120000      22.12390000
H        8.60730000       7.32080000      13.14340000
H        7.93950000       8.56440000      12.57590000
H        2.06870000       1.19690000      18.56000000
H        0.91600000       2.41620000      18.54560000
H        5.66150000       1.34340000      20.27800000
H        6.83010000       2.41200000      20.28750000
H        6.05840000       4.21610000      31.73760000
H        6.41690000      10.77470000      31.74710000
H        2.71070000      10.84600000      31.92970000
H        5.93800000      12.93040000      31.30470000
H        0.96140000      11.73810000      31.67530000
H       12.23400000      12.51450000      31.17510000
H        9.37140000      11.10770000      30.56800000
H        8.75110000      12.84960000      31.54600000
H        6.22340000       8.52430000      31.78290000
H        8.25270000       5.20070000      31.86580000
H        3.01880000       3.18770000      32.30560000
H        1.98790000       4.91150000      31.72080000
H        1.58510000       3.90800000      15.33320000
H        6.00260000       6.43320000       9.95020000
H        6.63290000       7.36280000      11.06680000
H        7.42800000      10.39340000      16.25300000
H       10.45610000      11.34710000      20.75020000
H        0.03040000       9.54130000      14.35080000
H       12.56960000       8.76420000      15.66260000
H        4.52400000      11.18300000      11.50290000
H        4.06380000       9.77610000      11.35510000
H       12.56690000       8.02710000      19.84470000
H       12.18320000       9.30580000      19.13730000
H        1.70130000      11.23470000      28.01240000
H        2.39490000      12.71350000      27.82450000
H       12.28120000      12.65180000      21.09490000
H        0.08750000      11.08040000      21.19460000
H        7.23570000       0.63930000      29.94880000
H        8.08240000       1.67180000      29.04090000
H        4.89360000       4.44530000      25.25680000
H        6.96570000       0.64780000      24.78410000
H        5.52960000       3.48160000      24.43530000
H        1.86060000      11.14940000      25.21030000
H        0.32840000       4.56140000      17.29040000
H        1.79710000       5.09680000      17.41520000
H        8.47860000       0.43300000      14.38450000
H        0.03150000       1.35340000      29.51050000
H        0.25660000       8.05180000      17.64710000
H        0.88770000       6.98700000      16.72590000
H        1.48620000       3.12900000      28.96130000
H        2.70330000       4.08990000      28.78750000
H        5.81330000      11.29840000      28.97430000
H        4.82870000      10.51290000      29.77560000
H       12.28030000      11.57420000      19.18520000
H       11.91110000      10.99090000      17.66440000
H        7.48140000      10.93000000      17.69330000
H        2.32480000      12.12220000      24.06190000
H        0.02610000       5.91190000      31.02110000
H        2.05780000       0.72510000      10.63700000
H        9.53560000      10.28660000      16.98180000
H        2.61130000       4.67800000      25.82680000
H        3.06770000       6.18760000      25.39340000
H        7.34640000       4.97230000      21.06500000
H        8.61800000       4.33400000      21.59900000
H       10.09800000       9.94560000      25.01140000
H       11.13660000      10.92600000      24.43260000
H        8.27970000      11.65350000      19.77600000
H        6.74490000      12.23640000      19.74260000
H        6.21110000      11.63810000      14.49040000
H        5.63360000      10.19630000      14.63320000
H        2.41820000      11.97810000      15.09230000
H        2.85350000      12.65250000      13.81030000
H        6.45170000       1.36000000       9.48660000
H        6.26520000      13.14800000       9.64990000
H       10.88720000      12.14360000      11.38650000
H       11.15090000      13.12960000      12.62570000
H        9.64040000       8.15300000      11.25620000
H        9.77280000       8.43380000       9.67710000
H       10.98100000       5.24330000      13.06550000
H        9.79570000       4.12470000      12.73440000
H        6.96730000      10.56040000      13.05950000
H        6.37720000      10.11340000      11.79150000
H        3.71320000       6.31670000      22.20970000
H        3.73250000       7.87850000      22.69030000
H        4.13070000       3.19260000      11.19480000
H        5.39760000       2.15280000      11.06440000
H       12.20460000       8.83120000      26.58900000
H       12.41750000      10.05770000      27.53650000
H        2.67720000      10.77430000      17.31840000
H       11.52790000      12.98650000      29.09930000
H        0.36170000      12.85630000      28.57420000
H        0.46390000       6.67640000      13.01760000
H       12.25000000       7.46830000      13.87660000
H        2.96320000      13.09630000      30.72430000
H        3.31020000       1.25080000      31.21990000
H       12.33590000       8.55020000      29.83860000
H       12.31770000       9.05560000      31.66500000
H        9.70620000      11.66110000      28.50440000
H        9.21290000      13.00190000      28.79490000
H        9.21160000       8.45310000      31.88170000
H        9.66890000       7.34360000      29.79640000
H       11.42830000       3.60250000      18.63240000
H       11.70220000       2.49290000      17.56520000
H        1.23720000       3.58010000      22.60530000
H       12.56790000       3.32600000      23.40190000
H        8.70100000      11.75850000      22.34180000
H        8.03340000      11.79700000      23.75070000
H        1.31780000      11.55180000      17.65200000
H        1.64090000       9.85280000      12.56580000
H        0.28030000      12.95300000      14.46630000
H       12.39810000       1.01150000      13.74690000
H        8.09100000       6.97750000      17.53820000
H        7.57280000       8.45900000      17.27550000
H       10.49590000       4.28390000      27.91790000
H       10.45400000       5.89920000      27.59840000
H        9.31470000       1.58800000       9.52470000
H        9.74500000       0.64330000      10.93090000
H        9.22170000       2.87640000      20.16540000
H        8.63930000       1.62750000      19.48170000
H        8.94030000      11.94450000      12.79210000
H        9.33070000      11.60270000      14.26810000
H       10.19720000       5.06550000      19.22010000
H       10.78360000       4.94910000      20.62270000
H        1.26580000      11.19720000      13.19440000
H       10.62700000       9.91180000      16.05740000
H        3.03760000       8.40730000      31.38050000
H        2.92410000      13.00650000      17.44750000
H        6.13390000       6.43790000      30.92100000
H        7.68390000       6.90470000      19.91810000
H        7.07130000       5.59080000      19.12860000
H        3.16130000       4.70020000      23.33670000
H        3.90070000       4.03210000      22.21300000
H        8.87670000       4.52870000      26.48930000
H        7.26420000       4.04740000      26.19350000
H        3.45550000       2.50410000      15.36180000
H        4.43350000       2.85660000      16.71840000
H        5.30820000       5.27250000      14.62050000
H        4.69360000       5.95070000      15.90450000
H        5.15880000      12.85620000      27.49500000
H        6.68210000      13.08810000      28.02020000
H        4.21590000       4.99960000      17.63960000
H        4.06240000       6.44600000      17.87770000
H        0.25730000       6.53740000      28.93570000
H        1.16280000       7.41110000      30.02740000
H        1.93750000       7.77480000      25.68280000
H        3.33410000       8.43030000      25.44830000
H        7.39200000       5.85720000      14.29890000
H        8.17520000       6.52640000      15.47330000
H       12.43700000       7.23090000      25.20040000
H       12.48550000       8.55670000      24.54480000
H       12.47700000       0.56690000      10.92220000
H        0.13170000       1.64730000       9.74550000
H        9.74970000       2.42340000      29.44070000
H       11.27700000       2.81010000      29.36650000
H        6.10790000       1.30940000      31.89780000
H        4.95180000       0.51170000      30.59740000
H        6.80740000       7.29670000      29.86510000
H        5.63040000       3.17470000      14.42730000
H        5.67090000       3.61880000      12.83280000
H        0.58790000       7.01880000      21.79680000
H        3.75220000       0.83690000      16.77370000
H        5.42490000       0.08330000      23.21880000
H        5.07050000      12.52940000      21.87420000
H        1.16660000       9.06200000      21.64260000
H        1.61640000      10.43520000      22.51270000
H        7.72060000       2.11070000      15.64530000
H        7.68310000       1.94890000      17.22020000
H        7.13690000       9.59700000      28.19920000
H        7.00880000       8.26600000      27.32230000
H        5.11040000       7.95900000      14.86290000
H        3.96290000       8.78000000      15.60750000
H       12.40860000       3.89650000       8.88290000
H        2.48300000       4.61180000      11.60210000
H       11.71510000      12.99090000      25.09730000
H        3.41330000       7.68510000      30.00770000
H       12.08410000      12.60370000      23.58580000
H        8.07960000       5.97160000      23.23300000
H       12.43700000       6.06420000       9.56790000
H       11.84100000       7.25340000      10.50870000
H        5.25320000       7.94780000      28.48820000
H        4.14970000       7.77100000      27.42270000
H        5.43270000       7.33080000      19.60070000
H        4.04470000       7.25280000      20.33890000
H        7.72390000       3.57910000      12.00500000
H        8.74980000       2.52560000      11.25670000
H        5.36440000      10.29670000      21.91010000
H        6.75280000      10.61690000      22.72550000
H       12.57800000      10.59870000      11.35970000
H       11.17810000       9.68560000      10.75780000
H        1.87800000       7.37280000      21.03770000
H        8.12440000       5.47950000      24.77080000
H        0.22300000       2.18140000      30.83080000
H       12.48060000       4.27050000      31.46620000
H        9.10080000       3.30270000      32.23650000
H       10.41720000       4.75380000       9.07730000
H        9.28180000       3.85180000       8.97420000
H        2.39050000       3.80760000      10.30490000
H       12.46870000       8.04300000       8.92960000
H        4.01300000       5.06240000       9.10210000
H        6.17310000       4.16620000       8.99540000
H        6.03610000       8.25490000       9.13780000
H        8.15340000      11.54220000       9.32030000
H        9.18150000      10.50990000       8.69820000
H       12.24290000      11.18000000       9.65610000
H        1.07590000      11.46160000       9.07590000
H        2.57830000       6.52400000      10.15560000
H        5.56190000      11.39060000       9.43370000
H        7.56010000       0.76460000      10.40200000
H        3.18820000      10.95480000       9.24120000
H        9.55690000       6.38360000      30.96510000
H        2.79930000      12.93750000       9.89420000
O        6.17820000       5.47120000      38.80963400
O        4.46200000       7.62300000      19.47740000
O        8.58560000       3.17560000      12.05600000
O        6.02670000       9.92590000      22.52460000
O        6.05530000       2.19160000       1.28620000
O       11.71640000      10.62340000      10.86560000
O        0.96720000       7.70980000      21.23190000
O        6.14930000       2.05890000      32.72850000
O        5.77090000       3.92940000      13.74880000
O        6.16950000       5.42110000      36.16503400
O        6.09790000       2.04600000      39.54083400
O        4.38410000       4.10080000       6.51160000
O        6.06250000       7.33620000      30.48850000
O        6.09160000       5.33040000       2.05470000
O        5.99110000       1.85020000       5.42480000
O        6.97180000       6.18390000      19.93470000
O        6.14040000       1.87020000      35.42253400
O        3.07810000       4.56170000      22.35910000
O        2.88700000       2.11690000       8.21570000
O        4.52800000       7.37860000      28.26140000
O        4.51800000      13.37020000      33.79950000
O        2.44000000       3.62300000      11.24530000
O        4.57920000       3.32380000      37.46203400
O        4.47560000       0.09820000       0.12540000
O        4.55850000       8.80580000      14.75320000
O       12.11990000      12.30170000      24.49960000
O        4.43010000       3.38700000       3.60630000
O        2.92510000       5.60830000       4.72690000
O        4.50030000      13.34910000       7.15790000
O        8.22220000       6.26750000      24.13770000
O        4.56830000       4.00450000      34.14533400
O        2.83230000       2.12690000       1.20420000
O        6.12030000       5.50800000       4.71920000
O        4.55080000       0.77610000      37.50173400
O       12.59370000       6.95780000       9.97710000
O        4.54550000       4.16380000      40.91353400
O        7.49720000       8.70030000      28.08460000
O        4.49820000       0.79840000       3.19470000
O        2.99770000       5.51250000      38.76233400
O        8.22100000       4.00250000      25.87830000
O        6.11810000      12.50420000      27.43970000
O        7.74600000       0.07300000      33.81610000
O        9.34240000      12.17900000      36.13483400
O        9.33920000       8.65250000      39.54393400
O       12.61350000       5.15860000      31.79150000
O        9.22950000      12.10130000       1.92610000
O        9.31570000       8.75780000       5.51370000
O        2.95400000       0.39380000      10.32700000
O        9.38680000       8.75210000      35.28963400
O        9.41850000      12.11530000      38.86673400
O       10.87040000       1.13690000      16.49350000
O        9.41970000       8.87950000       1.32960000
O        9.24200000      12.16330000       4.63560000
O        8.51610000       1.60710000      24.90390000
O        9.25590000       8.92810000       8.22880000
O       10.77380000       6.75740000      33.86170000
O        4.77600000      12.51670000      19.75330000
O       10.82280000      10.10760000      37.51023400
O       10.96820000       6.80120000      40.91143400
O        5.88810000       0.51640000      30.87290000
O        6.06530000       2.08950000       8.14730000
O        9.34590000       8.98550000      32.72980000
O        0.32310000       1.31300000      10.66510000
O        4.33550000       2.41250000      15.76530000
O        7.74810000       3.42770000      37.36953400
O        7.73400000       0.11400000      40.92873400
O        5.02440000       6.16740000      14.97900000
O        7.72950000       3.32830000       3.48320000
O        7.74070000      13.35690000       7.07200000
O        2.82870000       2.10760000      35.41813400
O        7.68410000       4.16400000      34.35393400
O        7.70870000       0.76860000      37.46923400
O        3.69010000       5.78610000      17.28280000
O        7.64340000       4.20740000      40.88693400
O        7.63910000       0.71620000       3.21380000
O        0.32340000       6.93010000      29.87660000
O        7.63560000       4.06760000       6.63320000
O        2.88580000       7.81130000      26.03180000
O        8.30750000       6.19410000      14.55550000
O        0.15290000       8.08480000      25.25710000
O       10.32820000       3.14690000      29.17440000
O        7.61450000       2.58710000      16.48930000
O        2.73790000       8.28530000      30.38120000
O        2.99830000       5.31350000       2.03440000
O        7.38490000       7.50800000      17.14010000
O       10.91100000       3.40170000      37.53053400
O       10.77960000       0.06750000       0.04230000
O       10.47620000       5.00770000      27.16390000
O       10.76340000       3.44360000       3.44700000
O       10.82050000      13.25220000       7.06420000
O        9.09990000       1.25750000      10.43510000
O       10.89800000       4.07850000      34.27113400
O       10.91610000       0.87450000      37.65993400
O        8.57880000       2.15490000      20.37840000
O       10.87800000       4.20650000       0.08260000
O       10.80500000       0.84820000       3.15000000
O        8.91740000      12.27110000      13.71450000
O       10.90180000       3.97770000       6.51150000
O       10.30560000       4.40720000      19.96940000
O       12.24710000       6.73450000      13.21570000
O       12.48020000      13.26390000      29.23790000
O       10.86560000       0.05830000      33.73800000
O        3.05000000       5.23770000      25.12210000
O        9.19550000       2.23980000       8.03210000
O        9.23360000       5.40990000       4.73190000
O        0.26000000       2.27970000      29.87030000
O        3.38660000       0.52560000      30.50800000
O       12.20530000       9.43160000      30.22900000
O        9.97620000      12.61680000      28.35720000
O        9.16120000       7.21820000      30.65580000
O        9.25000000       2.39740000      32.72820000
O       12.15500000       3.23060000      18.05270000
O        9.43630000       5.48040000      36.17363400
O        9.25450000       2.13830000      39.53673400
O        0.21970000       3.56800000      22.52030000
O        9.32350000       5.56620000       2.09170000
O        9.13690000       1.85550000       5.36750000
O        7.92910000      12.07700000      22.82920000
O        9.37190000       1.88930000      35.34613400
O        9.34570000       5.48840000      38.86523400
O        0.88460000      10.48790000      12.61930000
O        9.18070000       2.22230000       1.29580000
O       12.23750000       0.08250000      14.18080000
O        2.84480000       1.77730000       5.49910000
O        7.69710000       4.56640000      21.90370000
O       10.68060000      10.05470000      24.23100000
O        1.23640000       4.10320000      34.27643400
O        1.31900000       0.81610000      37.62633400
O        7.27160000      10.06960000      12.23450000
O        1.30860000       4.16450000      40.93343400
O        1.26790000       0.85250000       3.09940000
O        3.61920000       7.23720000      21.97500000
O        1.39560000       3.92970000       6.83300000
O        5.12140000       3.06480000      11.33710000
O       11.68880000       9.54960000      27.12250000
O        2.09720000      11.58470000      17.06710000
O        6.25190000       7.72070000      25.69360000
O        3.22420000       0.51750000      17.61220000
O        2.98210000       2.19420000      32.59200000
O        4.88240000       0.03430000      22.33070000
O        3.00330000       5.50730000      36.10483400
O        2.86140000       2.08370000      39.56023400
O        1.44660000      10.10910000      21.59950000
O       10.61300000       4.38220000      13.30510000
O       12.58250000       2.14390000      32.70990000
O        1.35180000      13.35280000       7.07700000
O       10.26490000       8.50370000      10.52190000
O       12.55020000       5.42880000      36.20213400
O       12.38270000       1.83420000      39.62533400
O        7.56890000      12.12000000      19.23160000
O       12.54980000       5.34450000       2.19230000
O       12.43480000       1.80890000       5.43750000
O        6.44200000      10.72560000      14.61620000
O       12.54430000       2.07990000      35.44083400
O       12.56380000       5.39470000      38.86993400
O        2.09510000      12.22570000      14.24980000
O       12.38080000       2.32780000       1.31700000
O       12.49150000       5.53020000       4.80130000
O        6.51670000       0.69890000      10.25870000
O       12.44120000       2.18940000       8.22010000
O        1.40050000      13.38460000      33.84040000
O       10.82100000      13.10710000      11.67930000
O        1.30820000       3.32430000      37.61083400
O        1.36340000       0.03010000      40.91953400
O        1.32360000       3.38320000       3.42730000
O       10.98670000      10.07980000       3.51760000
O       10.46030000      10.39650000      16.88070000
O        9.19830000       8.20670000      20.03110000
O        4.55910000       7.49230000      37.66473400
O        4.73730000      10.39210000      10.98460000
O        4.56130000      10.90220000       0.02220000
O        4.49040000       7.45850000       3.25910000
O       12.00280000       8.36920000      19.15070000
O        4.54670000      10.75730000       6.76800000
O        1.53900000      12.24700000      27.83190000
O       12.03430000      11.71140000      20.89550000
O        4.53430000      10.75370000      34.22513400
O        8.12240000       0.74180000      29.45310000
O        2.21700000      11.11740000      24.25220000
O        6.22510000       8.96380000      32.64330000
O        0.93240000       5.24650000      16.99370000
O        6.15540000      12.20970000      36.16953400
O        6.09300000       8.85770000      39.64043400
O        8.44790000       1.42990000      14.35080000
O        6.04810000      12.13950000       1.97670000
O        6.11960000       8.57320000       5.58230000
O        5.44060000       3.66460000      25.35770000
O        0.75150000       7.98610000      16.79080000
O       12.02240000       9.09430000      14.84020000
O        4.50340000      10.12910000       3.47560000
O        2.99310000      12.23560000      36.11873400
O        3.01900000       8.83460000      39.65073400
O       12.50060000       3.04260000      25.64010000
O        2.98720000      12.06110000       2.08590000
O        2.82950000       8.64750000       5.52790000
O        0.44080000       5.60460000      27.48740000
O        2.98310000       8.56300000      35.48223400
O        2.88980000      12.03340000      38.83813400
O        4.51700000       6.71130000       7.02590000
O        8.59530000       0.85100000      18.12900000
O        2.96870000      12.32910000       4.71270000
O        3.80110000       0.33000000      27.55250000
O        2.88190000       8.83730000       8.21800000
O        4.54560000       6.71160000      33.76780000
O        6.17220000      13.39520000      24.74530000
O        4.57630000      10.04960000      37.40643400
O        4.51110000       6.78860000      40.94233400
O       10.75680000       6.53010000       6.88380000
O        2.98360000       9.01360000       1.35680000
O        6.12020000       8.63360000      35.35073400
O        6.18580000      12.14870000      38.81053400
O        1.96730000       3.67210000      28.30490000
O       10.71780000       0.70990000      26.05620000
O        3.03440000       5.17060000       9.01320000
O       11.85030000       6.00240000      21.58750000
O        8.39990000       7.68250000      12.24850000
O        6.09950000       5.11610000       8.73920000
O        1.46830000       1.83680000      19.13360000
O        9.08210000      11.47770000       9.03050000
O        5.98990000       2.15200000      19.81990000
O       12.02760000       4.81550000       8.81830000
O        5.94010000      11.64490000      32.05660000
O        2.47230000      11.76770000      31.98000000
O        2.71230000      11.66120000       8.75680000
O       12.66560000      11.94830000      31.83790000
O        9.31770000      12.08350000      31.84230000
O        6.22090000      12.08270000       9.09360000
O        6.45250000       5.08990000      31.96270000
O        9.25730000       5.08350000      31.97940000
O        2.91440000       4.88810000      32.01460000
O        0.06110000      11.66330000       8.93480000
O        5.83400000       0.32430000      14.55450000
O       12.53770000       2.70840000      12.96210000
O        9.44560000       4.79200000       8.95380000
O        6.17850000       8.79490000       1.37520000
O        6.13080000      12.19800000       4.76080000
O        5.72760000      10.45470000      29.40400000
O        6.08190000       8.79100000       8.26610000
O        7.71520000       6.73640000      34.01770000
O       12.56510000      11.07640000      18.42620000
O        7.76340000      10.06510000      37.50563400
O        7.66450000       6.81060000       0.00190000
O        7.75960000      10.09800000      17.15740000
O        7.68340000      10.05680000       3.48170000
O        7.77730000       6.56250000       7.02750000
O        5.88470000       7.31570000      10.44330000
O        7.79840000      10.91760000      34.32133400
O        7.67990000       7.47110000      37.47983400
O        2.02830000       3.45380000      14.54120000
O        7.67400000      10.81740000      40.87103400
O        7.71720000       7.44750000       3.27980000
O        9.45910000      10.51980000      29.72660000
O        7.63190000      10.75610000       6.71390000
O       10.25000000       6.03700000      17.76050000
O        2.98120000       9.03470000      32.78270000
O        9.53390000      11.01350000      20.82500000
O        3.01880000       8.96330000      12.48780000
O       12.50850000       8.53600000      35.36523400
O       12.54260000      12.04550000      38.79933400
O       12.53670000       8.66080000       1.36160000
O       12.44270000      12.23120000       4.69130000
O        8.73880000      11.68560000      25.40630000
O       12.46890000       8.74910000       8.14880000
O        1.28290000       6.65150000      33.70940000
O        5.56390000       3.30580000      22.65700000
O        1.33590000      10.14350000      37.43643400
O        1.32380000       6.76620000      40.84463400