402
Lattice="12.946 0.0 0.0 0.0 13.28 0.0 0.0 0.0 26.164" Properties=species:S:1:pos:R:3 i=0 time=0.0 E=-2350.5311565227 pbc="T T T"
P        3.33767000       9.61226000       1.16336000
P        7.58189000       9.68904000       0.98464000
P       11.85232000       9.62699000       1.12529000
P        3.33009000      13.02570000       0.97275000
P        7.62462000      13.20410000       1.12449000
P       12.00764000      12.89381000       0.96266000
P        3.43028000       2.99865000       1.06949000
P        7.43505000       3.13616000       0.91954000
P       11.84457000       2.99881000       0.92492000
P        3.19895000       6.30625000       1.19866000
P        7.43393000       6.34693000       0.97288000
P       11.88469000       6.19386000       1.19019000
P        1.03734000       7.99576000      25.33472000
P        5.35968000       8.00629000      25.03634000
P        9.66699000       7.92327000      25.10794000
P        1.24560000      11.23708000      25.11234000
P        5.43515000      11.40768000      25.08236000
P        9.69238000      11.31434000      25.24057000
P        1.11466000       1.33578000      25.08367000
P        5.37551000       1.27970000      25.09507000
P        9.74696000       1.23781000      24.89435000
P        1.26914000       4.65238000      25.06750000
P        5.27533000       4.66571000      25.13415000
P        9.76012000       4.67352000      25.06443000
P        1.73846000       8.06474000       1.37055000
P        6.02208000       7.99276000       1.09234000
P       10.35117000       7.94687000       1.04646000
P        1.93141000      11.25032000       1.13861000
P        6.03056000      11.47850000       1.21925000
P       10.41111000      11.44571000       1.17430000
P        1.90530000       1.37460000       1.13473000
P        6.04799000       1.36618000       1.03653000
P       10.53597000       1.23963000       0.80617000
P        1.85688000       4.57150000       1.05053000
P        6.02089000       4.74524000       0.99752000
P       10.37801000       4.60610000       1.04228000
P       12.63226000       9.61535000      25.17104000
P        3.92043000       9.73938000      25.05283000
P        8.17928000       9.65997000      24.99357000
P       12.71363000      12.88729000      25.05634000
P        3.81596000      12.94263000      24.89269000
P        8.19750000      12.97554000      25.19433000
P       12.63680000       3.06502000      25.04833000
P        3.94069000       2.94957000      25.10532000
P        8.30370000       2.97815000      24.99618000
P       12.62682000       6.23220000      25.31153000
P        3.76360000       6.40613000      25.05371000
P        8.24376000       6.33223000      25.08865000
O       10.58328000       6.38480000      19.14146000
H        9.76195000       6.39836000      19.65002000
H       10.85173000       5.43841000      19.13170000
O       10.61354000       7.78493000      21.80262000
H       10.56991000       7.62984000      22.76649000
H       11.05926000       8.66857000      21.66303000
O        1.20159000       8.19677000      22.18988000
H        0.65452000       8.87117000      21.70530000
H        0.85456000       7.28438000      22.19877000
O        9.67033000       0.68632000      21.81458000
H       10.29055000       1.33283000      21.43574000
H       10.02060000      13.04037000      21.80944000
O       10.26148000      11.44089000      20.97372000
H       10.42646000      11.68465000      20.05977000
H       10.97708000      10.79436000      21.06628000
O        1.68598000      12.31519000      17.35615000
H        1.91542000      11.42279000      16.97697000
H        2.55701000      12.60596000      17.77145000
O        3.18496000       2.12574000      21.44887000
H        3.42009000       3.09063000      21.40665000
H        2.35226000       1.96562000      20.89261000
O        7.76507000      10.20446000      20.70538000
H        7.47447000       9.43117000      21.36569000
H        8.67156000      10.51585000      20.92333000
O        3.93935000       4.64870000      22.27411000
H        3.83338000       5.61952000      22.01250000
H        4.84094000       4.38927000      22.16203000
O        6.24387000       4.01369000      13.94016000
H        6.35372000       4.15035000      14.90285000
H        6.35999000       3.10065000      13.81443000
O       12.67328000       5.69772000      21.71795000
H       11.93895000       6.40629000      21.78843000
H       12.70667000       5.56029000      20.72828000
O        3.65507000       6.38656000      19.06722000
H        3.24994000       7.19031000      18.59150000
H        3.88981000       6.68819000      19.95413000
O        7.12645000      11.99067000       4.01014000
H        6.74553000      12.93849000       4.13332000
H        6.58175000      11.34639000       4.48668000
O        2.96116000       5.71489000       8.40526000
H        2.78119000       6.66753000       8.16326000
H        2.19615000       5.23341000       8.16296000
O        1.19542000      12.40164000       5.65665000
H        0.39442000      12.48816000       5.10202000
H        0.82456000      12.38184000       6.56379000
O       12.83745000       9.51733000       5.47467000
H        0.30539000      10.38731000       5.34007000
H       12.46473000       9.42283000       6.35042000
O       10.30576000       9.59765000       4.05562000
H       11.25334000       9.39103000       4.26647000
H        9.77137000       8.82682000       4.37513000
O        4.05143000       7.72057000       4.06253000
H        4.73864000       8.34088000       4.22073000
H        4.56843000       6.90328000       3.77558000
O        6.80348000       2.69730000       9.81108000
H        7.50503000       2.21089000      10.36036000
H        7.16238000       3.57806000       9.30434000
O        0.57569000       4.72644000       7.85468000
H        0.47561000       4.77804000       6.86061000
H        0.44327000       3.79735000       8.11716000
O        6.14782000       1.24961000       4.88914000
H        6.10032000       1.28544000       5.85621000
H        6.75915000       1.94125000       4.58717000
O        5.14825000       5.04127000       6.97845000
H        4.96567000       4.73840000       6.02501000
H        4.27738000       5.22041000       7.43104000
O       12.57073000      12.36266000       8.05131000
H       11.71312000      11.94470000       7.85083000
H       12.36774000      13.22411000       8.40219000
O       11.52959000       8.73520000       7.76349000
H       11.02618000       9.54978000       7.96875000
H       10.99298000       8.23135000       7.12317000
O        2.85100000       5.65870000      11.03174000
H        3.01517000       5.69781000      10.06679000
H        1.91696000       5.35345000      11.14723000
O        8.30271000      10.45946000      12.97452000
H        8.42132000      10.01345000      12.10611000
H        7.77752000      11.26513000      12.79324000
O       12.34345000       9.69980000      20.67401000
H       12.39766000       9.14881000      19.88081000
H       12.93425000      10.52403000      20.33307000
O        7.20892000       1.60654000      19.94150000
H        7.95351000       1.18932000      20.41781000
H        6.24989000       1.24368000      20.29829000
O        0.33665000      10.91684000      10.30653000
H        0.63206000      10.04762000       9.94889000
H        0.13496000      11.45734000       9.52959000
O        4.95076000      10.71470000      19.00859000
H        5.93221000      10.57224000      19.26743000
H        4.85546000      10.23139000      18.17956000
O        2.95538000      10.79083000      21.03554000
H        3.63880000      11.09548000      21.65487000
H        3.46114000      10.58917000      20.21742000
O        4.95413000       0.53858000      20.52804000
H        4.13285000       1.08047000      20.87033000
H        5.21831000      13.20678000      21.30286000
O        1.85502000       7.57683000       5.65954000
H        2.53552000       7.97804000       4.97483000
H        1.14983000       8.20380000       5.56264000
O        0.71714000      11.98523000      19.95111000
H        1.51281000      11.69015000      20.39090000
H        0.93868000      11.94503000      18.99580000
O        5.76592000      10.09558000       5.34885000
H        5.88983000       9.37478000       6.03085000
H        4.86968000      10.44339000       5.57867000
O        4.74284000       4.76703000       4.40510000
H        5.70989000       4.51485000       4.35101000
H        4.28890000       4.04329000       3.96291000
O        0.02904000       5.61530000       4.90205000
H        0.84660000       6.20281000       4.84776000
H       12.16906000       6.15573000       5.21526000
O        0.83927000      10.51698000      13.89789000
H        1.09630000       9.68579000      13.41658000
H        1.62920000      11.12697000      13.75004000
O        4.24171000       2.49620000      10.61884000
H        4.16863000       2.97936000      11.52661000
H        5.17712000       2.49604000      10.38962000
O        6.48643000       8.14839000      21.86288000
H        6.65941000       7.95902000      22.82005000
H        6.92437000       7.30505000      21.45977000
O        4.78816000       9.80652000      16.00432000
H        5.48634000       9.14770000      16.20770000
H        5.09877000      10.71645000      15.66143000
O        3.22170000       8.52433000       7.92161000
H        2.49856000       8.75808000       7.32202000
H        3.95649000       8.49808000       7.28762000
O       12.12576000       1.42774000      17.72572000
H       11.64744000       2.34511000      17.91548000
H       12.56826000       1.41949000      16.86209000
O        3.04782000       1.67269000      14.26111000
H        3.50516000       1.77132000      15.10652000
H        3.21165000       2.43632000      13.69588000
O       10.67661000       1.09684000       8.46274000
H       10.37435000       1.44561000       7.57294000
H        9.89168000       1.00349000       9.00440000
O        9.75297000       3.73880000      11.95816000
H        9.31622000       4.26654000      12.68403000
H       10.00440000       4.60503000      11.48403000
O       12.19741000       8.28107000      18.42389000
H       11.88468000       9.01503000      17.86166000
H       11.57520000       7.52669000      18.50875000
O        7.85054000      12.71802000      18.06086000
H        7.86422000      13.24019000      17.22145000
H        7.44814000       0.03376000      18.72040000
O        7.42853000       6.39408000      10.74551000
H        6.69489000       6.30585000      11.38798000
H        8.26355000       5.92024000      11.03621000
O        6.42751000       7.70023000       6.53700000
H        6.07081000       6.83308000       6.82607000
H        6.76369000       8.20608000       7.29397000
O        2.15001000       1.71432000       5.94110000
H        1.26467000       2.24812000       5.99781000
H        1.75154000       0.86620000       5.64791000
O        2.61668000       4.19489000      18.35986000
H        2.41345000       3.70450000      19.15253000
H        3.11869000       4.98657000      18.72304000
O       10.72140000      12.87734000      14.93192000
H       10.74520000      12.82715000      13.94818000
H       11.68641000      13.00519000      15.14747000
O        2.31910000       8.41362000      18.48003000
H        2.33931000       8.99933000      17.56887000
H        1.35083000       8.30251000      18.65043000
O        8.17026000      10.10790000      17.92747000
H        7.78974000      11.03520000      17.99548000
H        8.04617000       9.84135000      18.85862000
O        8.74622000       1.16064000      11.11968000
H        9.48074000       0.44887000      11.27163000
H        9.27305000       1.98187000      11.39604000
O        4.28467000       2.38357000      16.65876000
H        3.75160000       2.98479000      17.15175000
H        4.41835000       1.49808000      17.20780000
O        7.31218000       7.83799000      14.08043000
H        7.68453000       8.55353000      13.46532000
H        7.76846000       7.01892000      13.88129000
O       11.88004000       6.38134000       9.20872000
H       11.85177000       7.24540000       8.65717000
H       12.54924000       5.75830000       8.83482000
O        7.15376000       4.94618000       8.57204000
H        6.98970000       5.52808000       9.36107000
H        6.31879000       5.15000000       7.90699000
O        1.29468000       5.95315000      16.74308000
H        0.87190000       6.73521000      17.15953000
H        1.58161000       5.21191000      17.38529000
O        4.22300000       0.16757000      18.02878000
H        4.58907000       0.10527000      18.93753000
H        4.75284000      12.85625000      17.46785000
O       11.13087000       3.71794000      18.85355000
H       10.15347000       3.58026000      18.61050000
H       11.29547000       3.29265000      19.79612000
O        9.91111000       5.03339000      16.02961000
H        9.96248000       5.62576000      16.87343000
H       10.84865000       4.75361000      15.92056000
O        3.74984000       7.56036000      21.81277000
H        4.46354000       8.20912000      21.66262000
H        2.81848000       7.98584000      21.82682000
O        4.60715000      11.97676000      11.17902000
H        4.57438000      11.07984000      10.72716000
H        4.07730000      12.62266000      10.67968000
O        2.36343000       0.76305000      10.20688000
H        3.01948000       1.53055000      10.38489000
H        2.78356000       0.22578000       9.47771000
O        6.27004000       1.04562000       7.76777000
H        6.84371000       0.24892000       7.82034000
H        6.41349000       1.61903000       8.59921000
O        6.80135000       9.31827000       8.71475000
H        5.92272000       9.43551000       9.13584000
H        7.40049000       8.99186000       9.40165000
O        6.40275000       1.11757000      14.17432000
H        6.62538000       0.60423000      13.37606000
H        7.20534000       1.12148000      14.77536000
O        5.86576000      11.72183000      21.93409000
H        6.20974000      11.75232000      22.85363000
H        6.65038000      11.46045000      21.39086000
O       10.62033000      12.71127000      18.55677000
H        9.69804000      12.79901000      18.20812000
H       11.09729000       0.23289000      18.25253000
O        1.23395000       8.30612000      10.30175000
H        0.64793000       7.56271000       9.93116000
H        1.38190000       8.08599000      11.28370000
O        0.26781000       4.38470000      10.94150000
H        0.41894000       3.53436000      10.47910000
H       12.92922000       3.97827000      11.84564000
O        8.41038000       5.49964000      13.64432000
H        9.06423000       5.42079000      14.40651000
H        7.62154000       4.87302000      13.71383000
O        9.67077000      12.02551000       5.07025000
H        9.87390000      11.10010000       4.80291000
H        8.82602000      12.07272000       4.53330000
O        3.18820000       6.36579000      14.82558000
H        2.65132000       6.31421000      15.67748000
H        3.00393000       5.59683000      14.38712000
O       12.68080000       2.98733000       5.18108000
H       12.73632000       3.90755000       4.94615000
H       12.69403000       2.42788000       4.32637000
O       12.37296000       4.74851000      14.77394000
H        0.20071000       4.80750000      15.33149000
H       12.57722000       3.89626000      14.29754000
O        6.39940000       3.91927000      16.56836000
H        5.66203000       3.27716000      16.67500000
H        6.18266000       4.70477000      17.17094000
O        2.86092000      12.40396000      13.30410000
H        3.33766000      12.27771000      12.37471000
H        2.78020000       0.10486000      13.37119000
O        3.80128000       2.29469000       4.05986000
H        3.25285000       2.11532000       4.87610000
H        4.64446000       1.88788000       4.30646000
O        2.13019000      10.01683000      16.29738000
H        3.08011000      10.00458000      16.03022000
H        1.58518000       9.69797000      15.49784000
O        6.10291000       6.10302000      18.05582000
H        5.17237000       6.29463000      18.26628000
H        6.38331000       6.75451000      17.33475000
O        5.06755000      12.41287000      15.53617000
H        4.29723000      12.26754000      14.86582000
H        5.57318000      13.19241000      15.01913000
O       10.52167000      12.94630000      12.11628000
H       10.73373000      12.06867000      11.81120000
H       11.41801000       0.13262000      11.83605000
O        0.84010000       1.04153000      15.55246000
H        1.60311000       1.46543000      15.06039000
H        1.30521000       0.24225000      15.95067000
O       10.18804000       6.30151000      11.26580000
H       10.69883000       6.38240000      10.38715000
H       10.79725000       6.59496000      11.97618000
O        8.42673000       0.95101000      15.92995000
H        9.28084000       0.48867000      15.60512000
H        8.68428000       1.84114000      16.18764000
O        1.41697000       7.77353000      12.91546000
H        0.47186000       7.49739000      13.18117000
H        2.04976000       7.35460000      13.61653000
O       10.13816000       2.48742000       6.14634000
H       11.07127000       2.64942000       6.08051000
H        9.89006000       3.14571000       6.88138000
O        3.17720000      10.92777000       6.26712000
H        2.53667000      11.32518000       5.65648000
H        3.53376000      11.68579000       6.78022000
O        3.82269000       4.07325000      12.82929000
H        3.59452000       4.73010000      12.10777000
H        4.66695000       4.31985000      13.25108000
O       11.72230000       2.73924000      21.42460000
H       12.48630000       2.36025000      20.97622000
H       12.07470000       3.45376000      21.96881000
O       11.22737000      10.52904000      11.85134000
H       12.16084000      10.58609000      11.36068000
H       11.51028000      10.28891000      12.80623000
O        8.67990000       2.88834000      17.87749000
H        8.07738000       2.40973000      18.48873000
H        8.12859000       3.52601000      17.34337000
O       12.05943000       2.69507000      13.25034000
H       11.30034000       2.93336000      12.74674000
H       11.94959000       1.71572000      13.50176000
O       11.80122000       0.04901000       4.30588000
H       11.71639000       0.07985000       3.27899000
H       10.97125000      12.99549000       4.66199000
O        9.73517000       4.55452000       8.01565000
H       10.27891000       5.12070000       8.59621000
H        8.80659000       4.86903000       8.18706000
O       10.91407000      10.45123000      16.99161000
H        9.97635000      10.34576000      17.27308000
H       11.04813000      11.36227000      17.21930000
O        4.55705000       9.43432000      10.24660000
H        4.02974000       9.16424000       9.42866000
H        4.70471000       8.72969000      10.90669000
O       10.69998000       9.66433000      14.32225000
H       10.73991000       9.88411000      15.27636000
H        9.86051000      10.05778000      14.00839000
O        0.26810000       0.35094000      12.10460000
H        1.05049000       0.69418000      11.69878000
H        0.43705000      12.75107000      12.56603000
O        7.77117000      12.01718000       8.85009000
H        7.63811000      12.01303000       9.83152000
H        7.35809000      11.14827000       8.62382000
O       11.72181000       7.13859000      13.55379000
H       11.91221000       6.56980000      14.34730000
H       11.37929000       8.05475000      13.86863000
O        8.20502000       8.00560000       4.34961000
H        7.93911000       8.60572000       3.66349000
H        7.54612000       8.04111000       5.07667000
O        7.87598000       6.37207000      20.09240000
H        7.77335000       5.59423000      20.67262000
H        7.31894000       6.04520000      19.36090000
O        6.61239000       4.07243000      21.72649000
H        7.12920000       3.81951000      22.54560000
H        6.68238000       3.23045000      21.27021000
O        8.21296000       2.83587000       4.15051000
H        8.91669000       2.52199000       4.77344000
H        8.58684000       3.13853000       3.31653000
O       10.28034000      11.25021000       7.60183000
H        9.93887000      11.52172000       6.74544000
H        9.44894000      11.33116000       8.22111000
O        0.95235000       1.46829000      19.85687000
H        0.48465000       1.51002000      18.97155000
H        1.03373000       0.49330000      19.96693000
O        9.19327000       9.01163000      10.80011000
H        9.47195000       8.12373000      11.08151000
H        9.93631000       9.59312000      11.12026000
O        6.93834000       8.05984000      16.60927000
H        6.98880000       8.11963000      15.59907000
H        7.42067000       8.79345000      17.04160000
O        7.01099000      12.71507000      12.27690000
H        6.06222000      12.62850000      12.00416000
H        7.55024000       0.15612000      11.79631000
O        3.83244000       0.09297000       7.59653000
H        4.77417000       0.35501000       7.71526000
H        3.34581000       0.65599000       6.96008000
O        0.24374000       2.19017000       9.11834000
H       12.30643000       1.76207000       9.21149000
H        0.85748000       1.43056000       9.35483000
O       10.52790000       6.44872000       6.00459000
H       10.07875000       5.76665000       6.61638000
H        9.99758000       6.46184000       5.19223000
O        4.97714000       7.51232000      12.13400000
H        5.48469000       7.72179000      12.88914000
H        4.15680000       6.98051000      12.33064000
402
Lattice="12.946 0.0 0.0 0.0 13.28 0.0 0.0 0.0 26.164" Properties=species:S:1:pos:R:3 i=50000 time=25000.0 E=-2350.5538720472 pbc="T T T"
P        3.42816000       7.83634000      26.10063000
P        7.57457000       7.79123000       0.18650000
P       12.01926000       7.65560000       0.33741000
P        3.59659000      11.15644000       0.15446000
P        7.71303000      11.16938000       0.33178000
P       12.08353000      11.04964000       0.16507000
P        3.52902000       1.20336000       0.15485000
P        7.90620000       1.13493000      26.12012000
P       12.06721000       1.05848000       0.33116000
P        3.39431000       4.52945000       0.17073000
P        7.68243000       4.48222000       0.15081000
P       11.97998000       4.38310000       0.19701000
P        1.13700000       6.07068000      24.30939000
P        5.51655000       6.15298000      24.14136000
P        9.91827000       6.22396000      24.33193000
P        1.17148000       9.39954000      24.23804000
P        5.64346000       9.41894000      24.10177000
P        9.96267000       9.53297000      24.36198000
P        1.28622000      12.90236000      24.21439000
P        5.64685000      12.75063000      24.08170000
P       10.06851000      12.71824000      24.32545000
P        1.25500000       2.81715000      24.16054000
P        5.62223000       2.81504000      24.07685000
P       10.11528000       2.89616000      24.22480000
P        1.85769000       6.17882000       0.24956000
P        6.11618000       6.06981000       0.07485000
P       10.53584000       6.05662000       0.28867000
P        1.97632000       9.56674000       0.24950000
P        6.13607000       9.49996000       0.16824000
P       10.51461000       9.38282000       0.33854000
P        2.09313000      12.74412000       0.21113000
P        6.36816000      12.83394000       0.04177000
P       10.63599000      12.65814000       0.26943000
P        1.96072000       2.85839000       0.13482000
P        6.31302000       2.78780000       0.02603000
P       10.54820000       2.71201000       0.23610000
P       12.68602000       7.76025000      24.34484000
P        4.11275000       7.83367000      23.89511000
P        8.43448000       7.84285000      24.23568000
P       12.79398000      11.22258000      24.20396000
P        4.05292000      11.11115000      24.15865000
P        8.42250000      11.16283000      24.41108000
P       12.69260000       1.22756000      24.43086000
P        4.10425000       1.11875000      24.17799000
P        8.70990000       1.26640000      24.01024000
P       12.66237000       4.42190000      24.17709000
P        4.08045000       4.42417000      24.17375000
P        8.49747000       4.47268000      24.29392000
O        8.15220000       7.66301000      17.04354000
H        7.30320000       8.13832000      17.17974000
H        7.80174000       6.73988000      16.92845000
O       10.14832000      12.66542000      20.03767000
H       11.00275000      12.39197000      20.51405000
H       10.36288000      12.90009000      19.05374000
O        2.97039000       9.96901000      21.21322000
H        3.45838000       9.36743000      20.64260000
H        2.04966000       9.88781000      20.81126000
O       12.10137000       3.01732000      20.70242000
H       12.80827000       3.63894000      20.97175000
H       12.55382000       2.09918000      20.47704000
O        9.52511000       2.15037000      20.31416000
H       10.21813000       2.78145000      20.40906000
H       10.00700000       1.22556000      20.30149000
O       10.56969000      13.08054000      17.24641000
H       11.40623000      12.76084000      16.69935000
H       10.40965000       0.77132000      16.92120000
O        2.65049000       2.52608000      21.28952000
H        2.90053000       2.44798000      22.24327000
H        3.51202000       2.20140000      20.81439000
O        6.99824000       1.37623000      21.18022000
H        7.32972000       0.46060000      21.28867000
H        7.80075000       1.79998000      20.83479000
O        5.59901000       4.12668000      20.49366000
H        6.29779000       3.64602000      20.94985000
H        5.91947000       5.08536000      20.63222000
O        5.14881000       4.93670000      11.99014000
H        5.53548000       4.43988000      12.71184000
H        4.59853000       4.41978000      11.39340000
O        0.64703000       9.73957000      19.90318000
H        0.72365000       9.76729000      18.90949000
H        0.17646000       8.87703000      20.08224000
O        4.54602000       8.22472000      19.92958000
H        5.37506000       7.71082000      20.30789000
H        4.94189000       8.50483000      19.02176000
O        7.88150000       1.91095000       5.05816000
H        7.67745000       2.01162000       6.01917000
H        7.73150000       0.88037000       4.89662000
O        3.85592000      11.00452000       6.53784000
H        4.27169000      11.80568000       6.16557000
H        3.41322000      10.64222000       5.80453000
O        1.14661000       1.53519000       3.01675000
H        0.41740000       1.55025000       2.39795000
H        1.39376000       2.42163000       3.27376000
O       12.87449000      10.80369000       4.24765000
H        0.80045000      11.32225000       4.26301000
H       12.40997000      10.75949000       5.16017000
O       11.40920000      12.61047000       2.93979000
H       12.01371000      11.94036000       3.42488000
H       10.58287000      12.37440000       3.40894000
O        4.86630000      12.17336000       3.44488000
H        4.69164000      12.96547000       2.99533000
H        4.80496000      11.40413000       2.73588000
O       10.78041000       2.48025000       8.88699000
H       10.05923000       1.87585000       8.81565000
H       11.39586000       2.06253000       9.56480000
O       12.28153000       8.21566000       4.33956000
H       12.51646000       9.12584000       4.24025000
H       12.14662000       8.19389000       5.39549000
O        6.58917000       3.79287000       3.18108000
H        7.13694000       4.61110000       3.21880000
H        6.97377000       3.11995000       3.80435000
O        6.47995000       9.16868000       6.60830000
H        6.05851000       9.83999000       7.17835000
H        6.25046000       9.36980000       5.67033000
O        3.73284000       1.43023000       5.94114000
H        3.05127000       0.78592000       5.73433000
H        4.54410000       0.89578000       6.21436000
O       12.05863000      11.72602000       6.67328000
H       12.11708000      12.68368000       6.43510000
H       11.07654000      11.60939000       6.89479000
O        5.85046000      10.32877000       9.18173000
H        4.95810000       9.95719000       9.24558000
H        6.41208000       9.76888000       9.72592000
O        8.83197000       0.73600000      12.88575000
H        9.44922000       0.05592000      12.45282000
H        8.20730000       1.01997000      12.13087000
O        0.90392000       0.90568000      20.15983000
H        1.56094000       1.58093000      20.52846000
H        0.76980000       0.28179000      20.89013000
O        6.21286000       1.11996000      17.26252000
H        7.05437000       1.64158000      17.43121000
H        5.56611000       1.31708000      17.92735000
O        1.63591000       0.67066000       9.24536000
H        2.55682000       0.94779000       9.41279000
H        1.82200000      13.01579000       8.86648000
O        6.57584000      11.55473000      18.23517000
H        6.80562000      11.71819000      19.22059000
H        6.18007000      12.35136000      17.83348000
O        3.90363000      12.06212000      19.82523000
H        4.08969000      11.76076000      18.95490000
H        3.59472000      11.27860000      20.37247000
O        3.48851000       4.21105000      18.48867000
H        3.85861000       4.67613000      17.70058000
H        4.23507000       3.93857000      19.07178000
O        1.98334000      12.54687000       4.15514000
H        2.79338000      12.28492000       3.78782000
H        1.77726000       0.03015000       3.53004000
O        1.87939000       0.36101000      17.51904000