ITEM: TIMESTEP
10000000
ITEM: NUMBER OF ATOMS
360
ITEM: BOX BOUNDS pp pp pp
0.0000000000000000e+00 1.0390000000000001e+01
0.0000000000000000e+00 1.0180000000000000e+01
0.0000000000000000e+00 3.6170000000000002e+01
ITEM: ATOMS id type x y z fx fy fz
323 2 1.19169 3.13052 0.529848 1.27479 -0.352811 0.141252
313 3 2.0681 2.73727 0.801932 -1.1326 0.251998 -0.0758098
283 2 2.58476 3.487 1.12442 -0.108463 -0.213336 -0.329969
270 2 0.170029 1.68332 2.39201 -0.0935961 0.785304 0.568111
260 2 2.05719 4.80867 3.2266 -0.362109 0.0349472 -0.360913
277 2 4.6031 1.16076 3.17759 0.579207 0.697921 0.235999
239 3 3.97958 4.86006 0.25708 -0.418199 -0.0325474 -2.21423
212 2 4.69924 4.42147 0.676167 1.10479 -0.368029 0.808497
297 2 2.4836 0.580792 3.94201 -0.0894707 -0.169766 0.164392
337 3 3.12624 1.28346 3.73698 -0.687334 -0.250689 0.191195
338 2 2.67403 1.87005 3.1318 -0.200748 0.225432 -0.261513
282 2 6.12105 0.988891 2.75101 -0.170046 0.72122 0.283877
131 3 5.49105 1.61017 3.20508 0.414514 -1.40681 -0.955619
146 3 10.2223 2.21719 3.13794 1.17786 0.33806 -1.73677
180 2 9.66813 1.60311 3.60361 -0.757991 -0.64774 1.25073
284 2 9.59655 3.97026 0.554277 -0.681003 0.0699627 0.791054
162 2 6.9671 2.84827 0.391674 0.657736 -0.197499 0.520748
274 2 7.00389 4.04839 1.89586 -0.380565 -0.103701 0.411622
185 3 6.03356 3.87863 1.79037 0.576748 0.901096 -0.687385
183 3 8.6655 4.33007 2.27547 -0.130986 -1.14123 0.495124
153 2 7.70278 1.12132 1.41542 0.650776 0.0271631 0.292511
303 2 8.965 3.58994 2.86489 0.0171669 0.793266 -0.791795
159 2 5.77218 3.09884 2.28964 0.0935543 -0.570617 0.620185
296 2 8.2532 0.255395 2.72633 1.75753 0.306551 2.13656
221 3 7.63876 0.378065 2.05107 -2.73438 -0.986342 -2.07092
219 3 7.5693 2.0989 0.204781 0.335312 2.09751 0.496119
232 3 2.55918 5.33756 2.56638 -0.255572 -0.178017 0.609054
161 2 3.31934 5.53748 3.11949 0.925879 0.48046 -0.183387
182 3 3.70442 9.09007 0.54514 0.95729 1.21729 -1.01524
289 2 2.92237 8.64604 0.824624 -1.27291 -0.194908 0.256967
168 2 1.88389 6.90052 2.28939 -0.404502 0.342249 -0.980861
231 3 1.45256 7.7412 1.97962 0.663298 0.460749 0.705355
342 2 0.981807 7.67349 1.12897 0.1777 -0.966309 0.296906
305 2 1.42373 8.86789 3.71689 -0.261777 0.0492898 -0.218795
214 2 4.83511 8.7389 1.54983 -0.226277 0.192105 -0.151177
175 3 5.146 6.1023 3.48274 0.258238 -0.591486 -0.317335
207 2 3.44514 5.2651 0.909784 -0.652524 0.667981 1.19026
197 2 8.85702 5.15982 2.74464 0.233793 0.406636 -0.15587
310 2 5.67245 5.54592 2.86856 -0.517927 -0.0514004 0.409309
160 2 5.28443 6.99402 3.14415 0.0812892 0.56356 -0.742531
165 2 10.3811 6.91087 2.76822 1.36242 0.466291 -0.873054
191 3 5.53882 8.35504 2.10446 0.41556 -0.244556 0.610521
226 3 9.51837 6.79927 3.11063 -1.33403 -0.629947 0.836034
257 2 6.31626 8.90355 1.99633 0.221974 0.139568 0.0586609
261 2 8.34364 9.14775 0.971631 -0.473836 0.421936 0.0741994
208 2 9.13879 8.04397 0.2897 -0.386625 -0.0397907 -0.543962
358 3 8.41641 8.68672 0.129401 0.891539 -0.326945 0.120915
213 2 0.912263 3.35739 4.19116 -0.790629 -0.654881 -0.577469
238 3 1.51371 3.98583 4.57474 0.271447 0.730686 -2.21144
172 2 1.46935 3.82918 5.49852 0.0704909 -0.512409 2.52065
35 3 1.32023 3.75944 7.08012 0.245244 -0.328164 0.275541
330 2 3.4562 2.16671 5.27406 0.106903 0.223387 -0.354559
246 3 3.80399 2.77555 5.94777 0.292312 1.33919 -0.000246356
306 2 3.88792 3.69765 5.60069 -0.266502 -1.39258 0.322662
40 3 3.77895 0.0665469 7.01278 -0.460508 -0.298926 -0.416297
15 4 2.51294 4.42286 8.03733 -2.07456 0.175876 0.823311
3 1 5.07171 1.83818 7.96266 0.299766 -0.191188 -0.259141
222 3 8.97548 0.261839 4.30003 0.318987 -0.508682 -0.141428
1 1 10.2593 1.74132 7.9339 0.105501 0.282134 0.726967
304 2 5.98755 1.09318 4.68854 -0.0531778 0.538842 0.766618
266 2 8.61569 3.48288 5.78145 0.124681 1.06303 0.0201139
320 2 7.94429 2.14577 5.63101 -0.952947 -0.498284 0.169701
319 3 8.79593 2.55853 5.71909 1.01511 -0.236278 -0.0496929
33 3 6.57906 3.53209 7.1463 -0.749302 0.497105 -1.28827
247 3 6.23186 0.930504 5.63876 0.0412741 -0.157901 -0.602215
166 2 8.8031 0.320363 5.25404 -0.138959 -0.151552 0.232958
13 4 7.72277 4.29243 8.02405 -0.0653001 1.48046 2.2154
250 2 6.12197 4.91737 5.96472 -0.00412348 0.0796184 0.1197
38 3 8.90829 0.108139 7.01197 0.0966779 -0.425241 0.510714
157 3 1.19221 9.58347 4.33037 0.209515 -0.724494 0.585027
39 3 3.54366 5.37193 7.16441 0.357146 0.230499 -0.612746
327 2 1.11178 5.66846 5.33883 1.0098 1.74993 0.390595
201 2 2.26662 6.66808 5.93952 -1.03143 -0.48666 -0.608543
164 3 1.33944 6.61643 5.5975 0.118374 -1.34853 0.184631
36 3 1.2378 8.93333 7.05098 0.0935598 0.205406 -1.0148
334 3 4.21197 8.02459 5.6745 -0.284092 0.0388744 0.329987
204 2 4.294 8.95356 5.94101 -0.368855 0.38021 0.466895
336 2 4.63422 8.0209 4.83082 0.250086 -0.354922 -0.725676
16 4 2.52244 9.5345 7.86197 -0.156339 -0.204582 2.21891
177 2 1.19437 9.14825 5.2244 0.0337333 0.448671 -0.458809
4 1 5.13883 6.92447 7.97254 0.179698 0.679469 -0.083366
317 2 9.64414 6.86656 4.06911 -0.446117 0.193545 0.0641021
178 2 9.86013 10.039 4.26278 0.140609 -0.331535 -0.00687015
37 3 8.86392 5.09083 7.10942 -0.338149 -0.680078 -0.308163
2 1 10.2906 6.92491 8.00123 0.303858 0.132039 -0.255523
147 2 6.21091 10.1461 5.71765 0.280825 0.10107 0.51654
259 2 5.73294 6.08098 4.98661 -0.150142 -0.241485 -0.181819
333 2 8.41197 6.41028 5.93454 -0.52493 -1.15753 0.347398
179 2 8.1707 7.81472 5.44654 0.278483 0.11913 0.268582
176 3 8.87608 7.19594 5.68214 0.0856536 1.41984 -0.46046
220 3 6.10218 5.88548 5.87143 0.639185 -0.394067 0.166265
34 3 6.67725 8.82499 7.04974 0.146715 0.142943 0.0782661
14 4 7.78448 9.54588 8.0338 -0.770629 0.123715 -0.31218
19 3 0.703366 3.06697 9.88432 -0.232453 -0.291719 -0.0741456
7 1 2.50544 1.82186 10.8272 -0.22013 -0.444862 -0.891938
31 3 3.32571 3.26062 8.98074 0.512828 -0.560938 0.0134873
47 3 3.93275 3.7397 11.7418 -0.609352 0.13379 0.111768
23 3 4.45294 0.517921 9.73403 -0.553712 -0.234709 0.849335
27 3 1.75004 0.638109 8.79295 0.636038 -0.143031 -0.173773
9 4 0.0319118 4.44027 10.6725 -1.99534 -1.7458 -0.325167
11 4 5.09387 4.53091 10.8241 0.908043 -1.4489 -1.46484
43 3 1.16711 4.99686 11.6839 1.34613 0.880035 1.02361
45 3 9.21421 3.71469 11.6821 0.334733 0.857134 -0.896017
29 3 8.42176 2.97213 8.8759 1.48412 0.694742 -0.358457
17 3 5.87508 3.18086 10.0033 -0.669631 0.717929 -0.0664453
5 1 7.63713 1.94433 10.7484 0.567733 -0.728735 0.113912
25 3 6.97755 0.774073 8.77478 0.158125 -1.15511 -0.010956
21 3 9.61675 0.415179 9.82316 -0.542668 0.523712 -0.7489
42 3 6.39043 0.0161786 11.6233 0.414838 0.141062 0.460251
44 3 1.15051 10.1047 11.6441 0.240526 -0.160233 -0.186523
24 3 4.41199 5.81954 9.84926 -0.412961 -0.674462 0.435274
28 3 1.52111 5.50068 9.06453 0.771317 0.18047 -0.104279
8 1 2.58285 7.00504 10.6523 -0.151623 0.238209 -0.0826093
20 3 0.677406 8.12052 9.78186 -0.104305 0.546176 0.659177
32 3 3.21544 8.0836 8.68368 0.111411 0.533871 -0.235453
48 3 3.96433 8.74024 11.6632 -0.760265 0.0896764 -0.123836
12 4 5.16502 9.48529 10.7452 0.392346 -0.342144 -1.1281
41 3 6.34407 5.20146 11.7054 0.134329 -0.686205 0.655278
10 4 10.2857 9.3582 10.7595 0.913688 0.423506 -0.262705
22 3 9.48373 5.70776 9.81594 0.74565 -0.63844 0.0357383
26 3 6.92977 5.5735 9.02288 -0.0372728 -0.84872 -1.4919
46 3 9.1346 8.65246 11.73 -0.103561 0.208194 -0.180067
30 3 8.54707 8.18196 8.85224 0.0761436 0.026293 -0.0200725
6 1 7.7818 6.75851 10.701 -0.477971 1.66055 0.116237
18 3 5.94858 8.27239 9.8227 -0.237315 0.154513 -0.0793399
111 3 1.8499 3.09728 15.6962 -0.276546 0.417556 -0.204155
143 3 1.37572 2.37603 12.8213 0.226496 0.771306 -0.380946
59 1 2.54612 4.384 13.5727 -0.148875 0.0676669 1.23348
135 3 3.96137 1.07829 12.7021 -0.144975 0.157433 -0.494974
83 3 4.42765 3.07699 14.4492 0.564704 -0.124263 -0.10792
92 3 0.704993 0.60112 14.6869 -0.662415 0.544245 -0.959122
104 3 3.21873 0.662925 15.6534 1.10573 -1.36242 -1.06569
67 4 5.1916 1.82402 13.5459 0.304729 -0.300942 1.474
65 4 10.3744 1.81701 13.6398 0.117444 -1.43894 0.35559
81 3 9.70379 3.09684 14.51 -0.486868 0.427505 0.267256
133 3 9.18793 1.07981 12.6828 0.275306 0.345834 0.701525
141 3 6.46299 2.47134 12.6471 -0.359271 0.822062 0.862845
109 3 7.027 3.11774 15.5488 -0.511041 0.330205 -0.44151
57 1 7.78951 4.50471 13.6947 0.219289 -0.157399 0.260309
90 3 5.96871 0.538127 14.5079 -0.776531 0.642952 -0.273273
102 3 8.47659 0.555133 15.6662 -0.265977 0.118288 -0.632742
91 3 0.632957 5.65715 14.6018 -0.308553 0.5003 -0.364905
103 3 3.25671 5.89514 15.5187 0.18942 -1.32349 -0.322248
60 1 2.4992 9.44168 13.627 -0.338937 0.291004 0.644323
112 3 1.80291 8.30515 15.463 -0.138252 -0.738695 1.01046
144 3 1.33369 7.58268 12.8102 -0.0138699 0.0650791 -0.567125
136 3 3.87398 6.27921 12.6531 0.17421 -0.548841 0.761117
84 3 4.43242 8.18243 14.5492 -0.278971 1.47856 0.386188
66 4 0.00685607 6.98086 13.6826 0.527731 -0.203405 1.39627
68 4 5.09156 6.95432 13.6452 1.11582 -1.66788 -0.897491
89 3 5.8901 5.72046 14.6284 -0.547674 -0.0104176 -0.94909
101 3 8.32455 5.64341 15.6544 0.921891 -0.283439 0.0504046
82 3 9.72072 8.2927 14.5555 -0.245617 -0.310244 -0.305291
134 3 9.10076 6.35087 12.8343 -0.781378 -0.870338 -0.285948
58 1 7.72462 9.39469 13.6537 0.593084 0.330593 -0.569981
110 3 7.22472 8.13104 15.4959 -0.95229 0.437869 0.604098
142 3 6.3123 7.63964 12.7032 0.149821 0.215937 0.778548
119 3 1.35845 3.84705 18.5913 0.436389 0.197544 0.546555
79 4 2.50519 1.79317 16.6201 -0.952129 -0.0680451 -0.571238
123 3 1.21092 1.0582 17.5236 -0.246022 0.596161 -0.243359
75 4 2.63085 4.47833 19.557 -1.1796 -1.46392 -1.84141
115 3 3.7289 2.48935 17.4493 1.59336 1.39715 0.666385
53 1 0.017021 4.27421 16.554 0.531801 0.806132 -0.471561
55 1 5.17231 4.37435 16.4256 -0.408102 0.52672 -0.545779
49 1 0.0697514 1.81967 19.4834 0.354842 0.612872 0.0979696
51 1 5.19302 1.93555 19.3765 -0.688322 -1.21714 -0.0885461
127 3 3.86267 4.99205 18.5333 0.49961 0.606987 -0.101241
128 3 3.71409 0.157886 18.3833 0.0334485 -0.920399 0.848491
113 3 8.88662 2.65304 17.3325 0.942646 -0.107247 0.899339
117 3 6.52562 3.74499 18.4805 -0.854433 -0.456204 -1.20614
77 4 7.71065 1.87027 16.4814 -0.702744 -0.799908 -0.308268
121 3 6.45202 1.15687 17.3858 0.188679 0.431444 -0.0266246
73 4 7.75587 4.40381 19.3425 2.45802 0.470757 1.08675
126 3 9.11863 0.0804096 18.6055 0.69519 0.709069 -1.79546
76 4 2.56242 9.51533 19.3487 0.429073 1.30544 0.0862391
124 3 1.35765 6.30488 17.4424 -0.377207 -0.510328 -0.0980242
80 4 2.50336 7.04728 16.4573 0.65542 1.25893 -0.86236
120 3 1.38861 8.74839 18.4459 -0.507167 -0.481422 -0.0860799
116 3 3.85093 7.78368 17.2047 -0.157552 -0.492284 1.1213
52 1 5.1228 6.81878 19.3626 0.444795 1.34609 -0.204732
50 1 0.0593422 6.91802 19.3708 -0.291231 0.619202 0.123645
56 1 5.24355 9.44701 16.3681 -0.691313 0.404074 0.68065
125 3 9.01081 5.15703 18.4368 -0.941365 -0.585422 0.332118
54 1 10.224 9.58101 16.4904 1.14245 -0.530951 -0.0113968
114 3 9.08926 7.57542 17.4487 0.33537 0.205561 -0.241504
74 4 7.86803 9.54958 19.4196 0.295031 -1.96574 1.53606
122 3 6.38402 6.27172 17.3776 0.360004 -0.105207 -0.0853105
78 4 7.78615 6.94166 16.5854 -0.752694 -0.626853 -0.0749048
118 3 6.86262 8.69254 18.4283 -0.699698 0.00619622 -0.485968
107 3 3.30076 3.15002 20.3705 0.211288 -0.174401 0.25038
99 3 1.73495 0.4651 20.4002 -0.172838 0.00751256 0.00183415
87 3 0.69753 2.99053 21.4456 0.244102 -0.0615738 -0.421732
63 1 2.76653 2.03013 22.4146 -0.145803 -0.080288 -0.541716
139 3 3.94937 3.87588 23.0164 1.32002 0.756222 -0.865176
95 3 4.5584 0.662271 21.2839 -0.199489 -0.104091 0.284253
132 3 0.933332 0.332234 23.2916 0.226055 -0.253521 -1.71698
173 2 1.50357 0.13156 24.0472 -0.198175 -0.546073 0.432793
71 4 5.20801 4.52687 22.0474 -0.562381 -2.61002 1.28399
69 4 10.3273 4.43704 22.04 0.546568 1.03599 0.858721
105 3 8.55638 3.12471 20.228 -0.736576 0.705229 -0.0409728
97 3 6.97878 0.548331 20.2342 -0.541878 0.869933 0.328512
93 3 9.48319 0.640213 21.1046 0.434502 0.0164059 1.33845
137 3 9.16825 3.96444 23.071 -0.550725 -0.458322 0.317845
85 3 5.94358 3.10571 21.2116 -0.404247 1.10612 0.503133
61 1 7.67013 1.9692 22.1731 0.349734 -0.727454 -0.326029
343 3 9.30472 1.57782 23.9866 -0.207801 0.368713 0.528339
360 2 9.56397 2.51924 23.9485 -0.0931909 0.0355756 0.208387
280 2 10.1781 1.12814 24.024 -0.229925 -0.174163 -0.156879
242 3 1.14331 5.21059 22.947 -0.477199 0.0297822 -0.161899
100 3 1.89664 5.775 20.3757 -0.469955 0.124692 -0.138641
108 3 3.29718 8.38032 20.3547 0.874511 -0.561865 -0.509537
96 3 4.3188 5.73011 21.2507 0.462749 0.701717 -1.06644
64 1 2.52694 7.01919 22.2303 0.173113 -0.210255 0.79555
88 3 0.840795 8.13091 21.3992 -1.0169 1.56958 0.24579
140 3 4.24103 8.6945 22.9554 1.05935 0.861316 -0.447081
72 4 5.36555 9.48358 21.9875 -0.0646996 -0.748482 0.582806
70 4 10.3279 9.58518 21.9838 -0.579721 -2.46644 0.780949
129 3 6.33249 5.10958 23.0852 -0.201772 0.481464 -0.23483
130 3 6.68458 10.0404 22.8859 -1.4039 -0.309756 -0.518244
98 3 6.9332 5.62253 20.2695 -0.176087 -0.0559809 -0.115423
106 3 8.83725 8.44248 20.4705 -0.818807 -0.207294 -0.553437
94 3 9.48222 5.72761 21.195 0.480551 0.0944031 -0.560836
138 3 9.24352 8.88561 22.9525 1.11457 0.827816 -0.335188
62 1 7.79989 6.99691 22.117 0.731491 0.134002 -0.287897
86 3 6.11612 8.07082 21.0825 -0.994538 1.32115 0.250895
151 3 3.77666 1.07964 24.2704 -0.402902 -0.373301 1.53922
258 2 4.48521 0.462318 24.4624 0.396585 -0.403795 -0.350948
155 2 2.16495 2.89245 25.1407 -1.87537 1.13591 -2.36793
339 2 1.51388 4.03651 24.1155 0.0918944 0.620365 -0.198352
281 2 3.49318 1.72376 25.3931 1.423 1.57395 -0.933373
316 3 1.52456 3.0854 24.3036 1.88885 -1.7861 2.86308
170 3 3.53022 2.55124 26.1335 -0.742064 -1.25833 -0.826366
251 2 3.69128 1.97654 26.8707 0.135715 -0.303147 1.45472
264 2 2.1004 3.42885 27.5301 -0.734763 0.858749 0.501598
223 3 1.61293 4.16158 27.979 0.448386 -0.600267 -0.912191
298 2 0.700919 4.18195 27.6012 0.460827 -0.593615 0.511499
193 2 4.75355 4.02965 27.0918 -0.295157 0.739992 -0.0655247
181 3 5.14216 4.86573 27.3851 1.81997 -1.42728 0.232788
309 2 1.62178 0.0622827 26.3578 0.487174 -0.681632 -1.29623
196 2 5.68987 2.34003 24.8454 -6.48345 -0.833153 2.85626
324 2 8.89128 3.97595 26.6462 0.0647258 -0.238002 0.98016
228 3 6.45277 2.43648 24.4456 7.84384 0.46569 -1.6964
273 2 7.14368 2.14809 25.1472 -1.44015 0.0769666 -1.23104
322 3 9.41287 3.80775 27.466 -0.971431 0.125315 0.10556
216 2 7.31256 1.06739 27.4754 -0.311239 -0.280542 -1.14811
345 2 10.1322 1.16769 27.7527 -0.389088 2.12032 0.908413
292 2 6.86781 4.27131 24.9254 -0.566988 -0.671181 -1.42587
209 2 6.81582 4.8716 26.2902 -0.302204 -0.0408654 0.523218
152 3 7.4325 4.65197 25.5781 0.604511 0.89458 1.59979
188 3 7.43866 0.911274 26.505 1.41107 -0.221076 1.00297
248 3 10.3259 0.435728 27.2182 0.698304 -2.05287 -0.296496
302 2 8.3847 0.602216 26.4249 -1.23765 0.488214 0.0241161
272 2 0.141059 9.92916 27.91 -0.10559 0.151043 -0.965057
148 2 2.98829 10.1325 25.4789 0.051285 -0.0191237 -0.154125
244 3 2.09684 9.79332 25.5919 -1.25484 0.45942 1.6792
156 2 4.57523 5.70617 24.2842 -0.857702 1.79811 0.414841
194 2 4.53645 5.58899 27.2612 -1.02552 0.357361 -0.477718
359 2 4.22524 7.30037 24.4622 1.64043 2.3262 0.129061
349 3 1.46742 7.60832 24.3669 0.890655 2.12992 -0.387845
351 2 0.877649 7.06678 24.8599 -1.01298 -0.743734 0.812847
294 2 1.62079 8.48184 24.8631 -0.0929789 -1.44296 -0.30385
240 3 3.90838 6.43929 24.4198 -0.516752 -4.20259 -0.323016
353 2 2.81726 6.35902 26.0725 0.559785 0.00534503 0.976139
205 2 2.53071 5.44112 27.3166 -0.0660994 0.459556 0.0271512
171 2 0.0874329 7.53793 27.1352 -0.788989 -0.940049 -1.2884
225 3 2.98723 6.27443 27.0417 -0.72134 -0.325277 -0.863708
321 2 6.13989 9.70493 25.7707 0.922847 1.52293 1.0891
234 3 5.54223 9.03504 25.5097 0.0482622 -1.38964 -1.39837
253 2 6.12906 8.58042 24.867 -0.952692 0.284545 0.507108
235 3 10.0821 6.92006 26.4308 1.1668 1.12004 1.80285
288 2 10.0418 6.08693 26.9088 -0.284196 -0.0636566 -0.271741
344 2 7.81324 6.12205 25.0624 1.53135 0.972971 -1.46839
331 3 8.32745 6.81278 24.4715 -1.29147 -0.618924 1.38074
341 2 8.9301 7.32194 25.0482 -0.224534 -0.422588 -0.161527
236 3 3.76324 0.745149 28.507 0.646059 -1.5812 -1.73511
198 2 2.98935 1.07976 28.9663 -0.724336 0.184172 1.01261
314 2 2.09113 1.87927 30.9361 -0.430656 -0.358288 -0.612387
233 3 1.93747 1.54624 30.0305 -0.585342 0.121858 0.160904
199 2 3.34826 4.69973 31.5227 -0.459516 -0.0892046 1.0565
307 2 1.00822 1.25372 29.9124 0.579001 0.662919 0.640227
187 3 3.41131 4.55289 30.5979 1.15888 0.534587 -0.92815
279 2 2.61948 4.15579 30.2779 -0.80047 -0.413418 -0.281004
308 2 5.25413 1.11117 29.0983 1.0891 -0.749244 -0.238271
268 2 6.81286 4.42509 29.8541 0.240808 -0.29024 -0.0633973
352 3 6.25593 1.03293 29.158 -0.208423 0.107623 0.319259
318 2 8.80114 3.66373 28.2417 0.725184 0.46214 -1.17412
255 2 6.98247 2.9873 29.1983 -0.700913 -0.3825 -0.0723493
189 3 7.38353 3.62694 29.772 0.850224 0.359708 0.131906
326 2 8.86204 0.879271 29.5945 -0.898272 -0.320205 0.267407
218 3 9.5343 1.51631 29.7586 0.766438 1.52362 0.649964
249 2 5.76382 2.12647 31.3832 -0.479882 -0.354751 -0.340169
312 2 9.20613 2.27988 30.3076 0.185253 -1.15885 -0.714737
203 2 6.82632 2.87467 32.0347 0.0920574 0.172222 0.19446
267 2 9.55506 4.57692 31.4439 0.325106 -1.10912 0.575666
224 3 9.64811 3.71003 31.9257 -0.378073 1.1184 -0.357646
256 2 6.47955 0.175061 29.5582 -0.651648 0.264278 -0.192249
285 2 3.60927 9.95945 28.3388 0.301452 1.23162 0.48462
278 2 3.39031 7.65385 30.1945 -0.87409 0.413164 -2.32544
217 3 3.14142 7.82597 29.2181 0.34838 1.36655 3.14998
300 2 3.2221 7.07545 28.6609 0.299228 -1.24877 -0.820725
195 2 5.12764 5.47265 30.075 -0.549208 -0.289363 -0.333854
350 2 1.50614 8.21202 28.9551 1.07594 -0.0369177 -0.574984
190 3 0.63356 8.50753 28.6483 -0.809062 0.180971 1.90507
210 2 0.208208 8.63033 29.5398 -0.306784 -0.11782 -1.46705
184 3 0.0474014 6.24697 30.9207 -0.138091 0.0147444 0.0932762
200 2 0.607282 6.09893 30.16 0.0406108 -0.0139917 -0.0863942
346 3 2.99718 8.31349 31.942 1.32178 1.78445 -0.638662
163 3 5.97579 5.73279 30.4313 -0.340819 0.509978 1.15501
315 2 5.82578 5.70413 31.4151 0.687268 -0.0266066 -0.879597
202 2 8.05673 8.42005 30.5611 0.302313 -0.0448354 0.102569
174 2 5.9486 7.6198 30.3482 0.659532 -0.122166 -0.335983
291 2 5.9475 8.72038 31.3671 0.187271 0.227684 0.443529
230 3 6.40631 8.45295 30.5624 -0.554852 0.100476 -0.0218097
311 2 9.90716 7.04667 30.7286 -0.0217935 -0.410702 0.136217
237 3 9.04241 8.51986 30.622 -0.493184 -0.552665 -1.3442
348 2 9.22145 8.97287 31.414 0.246358 0.864116 1.46088
206 2 5.158 1.38847 34.8878 -1.21079 -0.236285 0.651542
301 2 2.88545 1.60336 35.4303 -2.51611 2.73436 2.5032
229 3 3.38856 1.06372 34.9165 2.67363 -2.2935 -1.51071
355 3 1.74364 2.80819 32.6261 0.48826 1.98968 -0.59856
269 2 2.86407 0.743117 34.1856 -0.590588 -0.212535 -0.664684
286 2 0.910608 0.0281863 33.5528 0.625402 -0.0115092 -0.977186
357 2 1.53783 1.9017 32.7529 -0.470433 -1.68674 0.258817
287 2 0.948271 3.26074 32.2735 -0.167783 -0.294083 0.307836
227 3 1.60248 0.207375 32.8537 -0.41904 -1.19445 1.09042
275 2 2.98767 3.58267 33.5215 0.683925 1.64033 -0.0970431
158 3 3.51136 4.43492 33.741 -1.17714 -1.66767 -1.27159
265 2 3.41481 4.52438 34.6801 0.595626 0.0922717 1.50892
332 2 5.13379 4.94055 33.1971 0.172272 -0.0868433 0.364763
325 3 6.03066 2.3815 32.2631 0.539478 0.118662 0.135087
295 2 6.98167 1.57267 35.8519 -0.845766 -1.58712 -1.27507
169 3 10.1925 4.10107 35.9925 0.524717 -0.0425928 -0.224336
340 3 5.98465 0.933726 34.7451 0.497003 0.53079 -0.525226
329 2 6.20432 1.36137 33.9114 0.606113 -0.0685559 -0.654247
347 2 9.66994 3.9571 35.1981 -0.214943 0.0563087 -0.164387
192 3 9.98694 0.183997 34.7715 -0.240183 -0.14578 -0.0347385
356 2 9.88666 1.10549 34.9749 0.0718324 0.500516 0.0725072
150 2 7.28099 4.37068 33.7786 0.431428 0.234766 -0.061008
293 2 7.70252 3.07149 34.4602 0.313205 -0.123235 0.131168
245 3 8.0791 3.83734 34.0191 -0.854093 0.102161 0.166273
290 2 9.05421 3.77559 32.7176 0.530251 -0.136041 -0.664612
254 2 3.53841 9.87786 36.1347 -0.108477 -0.925436 0.52602
335 2 1.98014 9.51205 32.5225 -0.367299 1.02749 0.113254
215 2 2.42032 5.82158 33.6921 -0.971461 0.672588 -0.794244
154 2 3.75241 8.56379 32.5078 0.623596 0.518329 -0.484062
145 3 1.82152 6.55338 33.3625 -0.390546 -1.31438 0.899267
271 2 2.71946 7.58116 32.4432 -1.68231 -2.18508 0.821131
276 2 0.989081 6.15833 33.0271 0.998163 0.25968 -0.0850105
354 2 0.531097 7.07725 35.1817 -0.177255 -0.716159 0.333817
186 3 0.0912786 6.82574 36.0102 0.310196 2.92699 -0.228472
241 3 5.9786 5.43117 33.1825 -0.242663 -0.961355 -0.646535
252 2 5.23452 9.86257 33.4898 0.0864425 1.24003 0.509096
243 3 5.26892 8.95843 33.2488 -0.351175 -1.3247 -0.666499
149 2 5.488 8.49402 34.084 0.278095 -0.203342 -0.16008
167 2 10.3776 5.90136 36.1163 0.0329505 -1.93793 -0.323334
211 2 9.22163 9.94537 35.204 0.318757 -0.419258 -0.0166896
299 2 5.91929 6.00727 33.9354 0.180405 1.00395 0.7329
262 2 7.12863 7.91064 35.4559 -0.688582 -0.276328 0.296422
328 3 6.2528 7.49445 35.2645 0.0329783 0.116152 -0.174513
263 2 5.72278 7.5718 36.0681 0.310916 -0.0885718 -0.133901
ITEM: TIMESTEP
10000100
ITEM: NUMBER OF ATOMS
360
ITEM: BOX BOUNDS pp pp pp
0.0000000000000000e+00 1.0390000000000001e+01
0.0000000000000000e+00 1.0180000000000000e+01
0.0000000000000000e+00 3.6170000000000002e+01
ITEM: ATOMS id type x y z fx fy fz
323 2 1.55457 2.99798 0.454208 -0.715201 0.319729 -0.190909
313 3 2.29933 2.48667 0.76151 -1.00949 -0.210046 0.36012
283 2 2.96923 3.16213 0.816132 0.830974 0.474209 0.0466369
270 2 0.544503 2.06264 2.25679 -0.342723 -0.361408 0.53644
260 2 2.23233 5.04628 3.42928 0.44855 -0.0359786 -0.0782447
277 2 4.58305 1.48752 3.19214 0.691719 -0.778528 -0.203539
239 3 3.70717 4.81737 0.223535 -0.166551 0.551247 1.30063
212 2 4.61702 4.62996 0.483524 0.116692 0.00532066 0.0126348
297 2 2.3184 0.197123 3.97587 0.593737 0.987985 -0.185888
337 3 2.85108 1.02651 3.74552 0.728218 -1.1574 1.2001
338 2 2.32434 1.4956 3.13656 -0.744275 0.80944 -0.969305
282 2 6.0699 0.853217 2.72387 -0.753529 0.521122 0.108209
131 3 5.54489 1.62466 3.02831 0.000288382 0.265097 0.443241
146 3 0.0231021 2.23637 3.05431 0.17895 0.69294 -0.363963
180 2 10.1862 1.46291 3.59819 -0.0616394 -0.267892 -0.35209
284 2 9.563 4.17773 0.682235 0.245748 -0.0690447 -0.232097
162 2 6.87172 2.91809 0.584652 -0.20486 -0.157504 0.132341
274 2 7.03579 4.07592 2.15641 1.6191 0.564785 -0.0256829
185 3 6.10836 3.99176 1.98161 -1.20754 -1.60782 0.354301
183 3 8.78891 4.31325 2.20126 -0.459916 1.67901 -0.206356
153 2 8.02017 0.776464 1.66578 0.409228 2.1868 -1.75296
303 2 9.10204 3.7384 2.87148 0.641917 -1.49758 0.750537
159 2 5.90253 3.11151 2.46124 -0.281287 1.05884 -0.726905
296 2 8.37006 0.0456672 2.9936 -1.22656 0.150852 -0.843585
221 3 7.68797 0.120192 2.22465 0.770773 -1.99915 2.71289
219 3 7.39002 2.16684 0.277289 0.974208 0.283894 0.0652159
232 3 2.78678 5.5293 2.78984 -0.481545 0.130471 -0.666348
161 2 3.70341 5.66011 3.12467 -0.312603 0.094013 0.183394
182 3 3.87 9.22098 0.577762 0.555963 -4.22353 2.17319
289 2 3.06759 8.70795 0.83438 0.830794 0.526456 0.200597
168 2 2.10948 7.04812 1.98382 0.107239 1.05871 0.955297
231 3 1.75023 7.97979 1.89735 1.02685 -1.76349 0.448045
342 2 1.17054 7.8117 1.16915 -1.14404 0.319222 -1.26674
305 2 1.41083 8.60204 3.53386 0.116569 -0.0255041 0.200738
214 2 5.18542 8.79817 1.53287 -0.120257 -0.722646 0.0872298
175 3 5.2368 6.14664 3.21662 0.295939 0.123251 0.968777
207 2 3.34613 5.31993 1.00737 0.288387 -0.801141 -0.816559
197 2 9.00661 5.20817 2.57764 -0.325707 -0.0557943 -0.463451
310 2 5.72379 5.52716 2.66421 -0.0170169 -0.931005 -0.100111
160 2 5.4764 7.00271 2.83004 0.0464176 0.742626 -0.335124
165 2 10.2437 6.99175 2.64069 2.6412 0.798767 -0.786771
191 3 5.92335 8.25616 1.90558 -1.00596 0.747424 -0.266903
226 3 9.42714 6.80489 3.00055 -2.75211 -0.22767 2.33599
257 2 6.59324 8.92638 1.9906 0.779238 0.0597012 0.452283
261 2 8.33122 9.10882 1.07989 0.312695 -0.616088 -0.786115
208 2 9.11539 8.00328 0.21738 0.597442 -0.734739 0.319424
358 3 8.44462 8.67743 0.200351 -0.841391 1.0842 0.187008
213 2 0.728739 3.32144 4.10611 0.83099 0.650864 -0.038461
238 3 1.34627 3.93725 4.5966 -0.746134 -0.115292 -2.25657
172 2 1.26081 3.62741 5.47398 0.11795 -0.31523 2.35845
35 3 1.28039 3.67362 7.25737 1.29118 0.888475 0.988046
330 2 3.45208 2.28346 5.21943 0.425548 -0.07916 0.291981
246 3 4.02097 2.83123 5.80319 0.0619493 -1.66674 -0.664645
306 2 3.58251 3.6552 5.85077 -0.4747 1.66892 0.123097
40 3 3.70414 0.112984 6.9642 0.290578 -0.200233 0.386715
15 4 2.50317 4.47619 8.18521 -1.83163 -1.31623 -1.91292
3 1 5.00903 1.90265 8.03424 1.28694 -0.395691 -1.52759
222 3 9.29049 0.19455 4.27616 -0.457985 -0.0745978 1.06811
1 1 10.2208 1.78294 7.89102 0.628022 0.142531 0.646767
304 2 6.28899 1.49472 4.99594 -0.740047 -0.132327 -0.841272
266 2 9.08298 3.75709 6.02256 -0.0389928 -0.934138 0.107289
320 2 8.10045 2.53438 5.76203 0.793766 0.101154 0.423083
319 3 9.05016 2.7579 5.92125 -0.755202 0.695672 -0.689876
33 3 6.59405 3.64649 7.14259 0.362058 0.282055 0.06083
247 3 6.42737 1.15508 5.87334 0.469522 -0.812498 0.733445
166 2 8.89722 0.225723 5.18127 0.165385 0.23767 -0.464571
13 4 7.72049 4.3302 8.14583 -0.336499 0.193705 -0.322693
250 2 6.45855 4.99033 6.04648 -0.0216455 -0.0928117 -0.39
38 3 8.89418 10.0851 7.01077 0.5905 0.670332 0.135209
157 3 1.24943 9.23283 4.25786 -0.236696 0.259304 -0.591549
39 3 3.55372 5.24175 7.15323 -0.113676 0.110664 0.191953
327 2 1.249 5.63225 5.36718 -1.05242 -2.16305 -1.23188
201 2 2.2934 6.33605 6.07093 -0.7372 0.697769 -0.203936
164 3 1.36735 6.46834 5.74586 1.64533 1.52113 1.54356
36 3 1.44467 9.05563 6.84957 0.0482762 -0.277021 0.839583
334 3 4.24943 7.9486 5.72493 -1.41377 -0.231097 1.32273
204 2 4.11182 8.88517 5.96484 0.228094 0.117689 -0.215517
336 2 4.90486 7.88687 5.06536 1.04608 0.102927 -1.07297
16 4 2.54996 9.58243 7.91839 -0.650314 -0.00981642 0.129373
177 2 1.46707 8.88141 5.13236 0.0810925 -0.45196 0.437742
4 1 5.14832 6.92359 8.00305 -0.135311 0.31128 -0.16778
317 2 9.37594 7.1545 3.9426 -0.0304767 -0.669202 -1.28544
178 2 10.0887 9.83428 4.42172 0.458316 -0.376536 -0.36179
37 3 8.8825 5.03057 7.15432 -0.177971 0.141592 0.424597
2 1 10.2229 6.88474 8.00769 0.0626066 -0.00294864 -0.914161
147 2 6.31701 0.169571 5.93308 0.144465 0.98376 -0.320333
259 2 6.07997 5.97405 4.80634 0.420685 -0.309211 1.09948
333 2 7.83938 6.84928 5.93092 0.794418 1.04594 -0.841881
179 2 8.29524 8.37562 5.70914 -0.603618 0.482885 0.263104
176 3 8.57254 7.47504 5.63938 0.710025 -1.70652 0.180778
220 3 6.50384 5.91278 5.72089 -1.12935 0.176737 -0.798226
34 3 6.61591 8.93514 6.96862 -0.481243 -0.407521 0.587282
14 4 7.72158 9.52059 8.03399 -0.527875 -0.166021 -0.0738472
19 3 0.689856 2.96631 9.91423 -0.257202 -0.228391 -0.540749
7 1 2.54582 1.7981 10.7535 -0.583483 -0.263769 0.00997559
31 3 3.35576 3.12872 8.88231 -0.37686 0.455804 1.05886
47 3 3.89281 3.705 11.6848 0.220446 -0.439987 -0.264999
23 3 4.28845 0.603247 9.79761 0.596912 -0.531608 0.0131482
27 3 1.72242 0.708293 8.7894 0.375213 -0.390798 -0.0376269
9 4 10.32 4.24287 10.7082 -1.62256 0.796856 1.18161
11 4 5.18067 4.32666 10.7857 1.00005 0.903795 0.422791
43 3 1.14085 4.88559 11.6094 -0.202646 0.179842 0.282873
45 3 8.96324 3.61581 11.7138 1.87476 1.05315 -1.0581
29 3 8.55093 3.06336 9.03817 0.768521 0.234632 -0.655379
17 3 6.00205 3.088 9.79205 -0.890322 0.566365 0.8828
5 1 7.72081 1.93741 10.7947 -0.268522 -0.659875 0.13255
25 3 6.95534 0.701409 8.83821 0.24572 -0.658835 0.0304627
21 3 9.49432 0.45034 9.77238 -0.482706 0.811995 -0.653137
42 3 6.26779 0.0283154 11.666 -0.00460757 -0.388626 -0.232913
44 3 1.1596 10.0573 11.5253 -0.599871 0.280167 0.0913434
24 3 4.45015 5.61932 9.95409 -0.332185 0.394229 -0.835907
28 3 1.63202 5.72362 9.05221 0.654005 -0.754489 -0.736084
8 1 2.49836 7.08746 10.6424 0.415766 -0.333889 0.464356
20 3 0.705642 8.18972 9.79619 -0.912859 0.158425 -0.450613
32 3 3.29664 8.14093 8.77706 -0.113739 0.392056 -0.575126
48 3 3.80219 8.82119 11.5319 0.974727 0.392632 -0.0156639
12 4 5.12944 9.52215 10.6783 -0.348259 -0.529418 0.00779798
41 3 6.4469 4.96155 11.7142 -0.726736 0.0843974 -0.629913
10 4 10.2112 9.4317 10.6791 2.81263 -0.214117 0.605242
22 3 9.61282 5.63008 9.81081 -0.503311 -0.359579 0.62789
26 3 6.89154 5.6259 8.95487 0.435142 0.0820214 -0.0273823
46 3 9.04689 8.69096 11.6349 -0.465154 -0.168843 0.3577
30 3 8.47702 8.07537 8.8125 -0.0362929 0.145918 0.525812
6 1 7.81243 6.89885 10.7514 -0.730943 -0.481183 -0.219667
18 3 5.93451 8.28617 9.73495 -0.348249 0.511128 0.78737
111 3 1.87875 3.1753 15.5851 0.835256 -1.08196 0.243037
143 3 1.25388 2.46259 12.8153 0.21354 -0.0559774 -0.123284
59 1 2.55928 4.36849 13.5686 0.340199 -0.0318397 0.645709
135 3 3.99659 1.1051 12.7409 -0.783721 0.0647427 -0.19035
83 3 4.36882 3.14512 14.5957 -0.181873 -0.371833 -0.176005
92 3 0.676842 0.473244 14.6013 0.362499 -0.145363 0.25542
104 3 3.38201 0.492879 15.6201 -0.792805 0.919911 0.223194
67 4 5.15784 1.89769 13.6769 -0.354145 -1.47229 2.15641
65 4 10.3691 1.76586 13.7059 0.274634 -1.47105 -1.6476
81 3 9.61764 2.97543 14.5274 -0.541057 1.80023 1.70883
133 3 9.15519 1.07491 12.7567 0.0218605 -0.308528 -0.29118
141 3 6.3591 2.62572 12.8557 1.18071 0.134407 -1.24694
109 3 6.92739 3.10257 15.653 0.703764 0.471219 -0.362714
57 1 7.86782 4.44711 13.74 -0.914873 -0.695769 -0.290146
90 3 5.88415 0.631414 14.6471 -0.11129 0.336069 -0.660349
102 3 8.43788 0.627174 15.4623 0.385244 -0.28598 0.901096
91 3 0.708622 5.47517 14.5161 -0.0914864 0.662561 0.0651361
103 3 3.42772 5.85706 15.4782 -0.498196 -0.16149 -0.140721
60 1 2.58926 9.47213 13.5935 -0.180495 0.148796 0.709202
112 3 1.77073 8.24993 15.5284 0.483937 -0.954187 0.368324
144 3 1.19265 7.53218 12.7368 -0.126593 -0.0517029 0.286549
136 3 3.98493 6.24359 12.8007 0.0277046 0.866035 -0.00377346
84 3 4.48465 8.39538 14.4694 -1.02046 0.839601 1.02602
66 4 0.0115689 6.82751 13.6995 -0.655471 0.393132 0.205144
68 4 5.14745 7.02317 13.7361 0.0719741 -2.92873 -1.01143
89 3 5.91184 5.64737 14.5416 0.665898 0.614306 0.309257
101 3 8.66888 5.51275 15.6938 -1.37185 0.524578 -0.827438