ITEM: TIMESTEP
0
ITEM: NUMBER OF ATOMS
360
ITEM: BOX BOUNDS pp pp pp
0.0000000000000000e+00 1.0390000000000001e+01
0.0000000000000000e+00 1.0180000000000000e+01
0.0000000000000000e+00 3.6170000000000002e+01
ITEM: ATOMS id type x y z fx fy fz
187 3 0.483034 3.66206 1.73652 -0.055053 -0.0168505 0.0429002
205 2 0.876823 4.37484 1.18529 -0.0182293 -0.0238934 0.0045677
206 2 1.04757 3.59694 2.5195 0.0650695 0.013053 -0.0524852
222 3 0.537612 1.28573 0.329687 0.0405682 0.0251999 0.00929103
251 2 0.393241 0.590492 0.991507 0.0200417 0.00904591 0.0248068
261 2 0.582827 2.124 0.832033 0.00659868 0.0112753 -0.0561696
352 3 3.18974 4.68436 2.41048 -0.0540429 -0.00784129 0.0310309
354 2 4.00491 4.18673 2.22749 -0.00668417 0.0037947 -0.0812971
188 3 8.36494 4.75047 2.01154 -0.0155914 -0.0129141 0.0395877
202 2 7.65876 4.00717 3.41356 -0.0741748 0.0112166 0.0137066
208 2 9.23196 4.30572 1.91417 0.0110776 -0.0151714 -0.0733402
309 2 7.51827 4.93083 0.44511 0.00789393 0.0670876 -0.0462849
340 3 8.07936 1.43124 0.0602252 -0.0195651 0.00399 0.0804748
343 3 5.4617 3.15507 1.80823 0.0656635 0.00608541 0.0251998
344 2 6.30683 3.58496 1.66279 -0.0710931 -0.00510424 0.0090191
345 2 5.6946 2.25009 2.07112 0.0163675 0.0115658 -0.0684314
355 3 6.69294 0.626622 2.12027 0.0645853 0.0532628 -0.0474344
356 2 7.34533 0.896157 1.43481 -0.0547602 0.0259329 -0.000465915
357 2 7.17549 0.308822 2.8922 0.024686 0.0388486 -0.0181037
191 3 4.41917 9.09329 3.48155 -0.024212 0.00374107 0.077844
213 2 3.47237 8.97694 3.68227 0.0345675 0.0160998 -0.0435753
243 3 1.55517 5.67818 0.290144 0.0101938 -0.038548 0.0155495
245 3 5.00428 9.24086 0.735877 -0.0244098 0.0272178 -0.000697753
293 2 1.01398 6.48137 0.194976 0.0174161 0.0347461 -0.0470157
300 2 4.5236 8.90612 1.5064 -0.0267851 -0.0366174 0.00639583
304 2 0.583669 9.21133 2.86559 -0.0221212 0.0101784 -0.0590859
325 3 1.75402 8.6891 3.95916 -0.0038319 0.0125871 -0.0800922
336 2 2.63139 5.53957 3.78465 -0.0432421 0.0123433 -0.0223
353 2 2.90944 5.1233 1.59712 0.0286121 -0.0148602 0.0053335
190 3 8.84216 7.12955 3.2061 -0.0178628 -0.0376676 -0.0251697
207 2 8.55918 5.6514 2.34685 -0.00915575 0.0347111 0.0314111
210 2 10.1543 8.51785 0.564023 0.0528684 0.00296859 -0.0147939
211 2 9.30965 7.86039 2.77591 0.0327204 0.0216616 0.0243545
212 2 8.00346 7.49389 3.57803 0.00366735 -0.00578046 -0.0144203
247 3 10.1975 9.48295 2.3187 0.0219365 -0.10392 -0.0204777
308 2 5.6868 9.7858 1.18652 0.0109903 0.00861019 -0.0435892
311 2 9.58924 9.91 2.94589 -0.00227362 0.0215626 0.0500108
1 1 0.147918 1.10333 8.01836 -0.0421056 -0.0587574 -0.171932
15 4 2.79122 3.73241 7.97761 0.0722532 -0.0538971 0.145404
35 3 1.61966 3.18511 6.97381 -0.103329 -0.0479165 -0.0418566
39 3 4.01682 4.39766 7.04357 -0.0876981 -0.0613881 0.0671662
182 3 1.82898 2.85348 4.39917 -0.045104 0.117859 -0.110952
183 3 1.6512 0.475678 5.82244 -0.0291569 -0.0389346 -0.0966895
195 2 1.82891 3.19775 5.32053 0.048123 -0.0182737 -0.0073243
196 2 2.74676 2.97149 4.10209 0.0516738 -0.0244167 0.00855
197 2 2.54047 0.215119 6.14243 -0.0422573 -0.0129859 0.0367355
198 2 1.76567 1.25254 5.24291 0.0639899 -0.0135014 0.0338069
217 3 4.59419 3.05564 4.75673 0.0075179 -0.0235868 0.0261833
307 2 4.48583 3.60934 5.55646 0.0312503 -0.0260148 -0.0167696
324 2 0.0123756 2.6323 4.70101 0.113451 0.0310225 0.0390766
3 1 5.3189 1.05884 8.01851 0.07071 -0.0182327 -0.084252
13 4 7.92008 3.59998 8.03057 -0.0423265 0.00535904 -0.335855
33 3 6.80761 2.85104 7.09003 0.0254066 0.0966693 0.0280297
37 3 9.13549 4.20454 7.04523 -0.158119 -0.0512984 0.141784
181 3 5.70806 0.660237 5.26851 -0.205412 -0.0153916 0.0633017
184 3 8.44111 0.195198 4.43015 0.0136422 -0.11019 0.127638
185 3 7.269 3.60017 4.21223 0.0748032 0.0247373 -0.131432
193 2 6.64468 0.616026 5.02189 0.0772369 0.0554989 0.0252194
194 2 5.38908 1.56284 5.0501 0.0107353 0.0390923 -0.0632705
200 2 8.85552 1.0352 4.71188 -0.0168558 0.00352609 -0.1765
201 2 7.97138 3.0569 4.59548 -0.0535771 0.030474 0.0520795
255 2 5.38511 3.38433 4.30305 -0.0276785 0.022772 -0.00481597
322 3 9.61178 2.43858 5.22216 -0.134578 0.0695817 0.200967
323 2 9.53228 3.14162 5.91898 0.0125481 -0.0172861 -0.148351
333 2 6.85699 4.72341 5.41913 0.042131 0.0231563 -0.0156074
2 1 0.140456 6.19815 8.02872 -0.0370911 0.0676073 -0.0579403
36 3 1.55041 7.94191 7.1 -0.0329105 0.0290773 -0.0556998
40 3 3.72486 9.50591 7.03801 0.0248057 -0.0169572 -0.0213297
214 2 4.74955 9.81626 4.04256 -0.0353865 -0.011037 -0.0548422
326 2 1.55548 9.1851 4.77522 -0.0132706 0.0150759 0.00891214
327 2 1.81851 7.73714 4.1812 -0.0195541 -0.0370477 0.0102294
328 3 4.27097 7.12398 5.89412 0.0130902 -0.0634208 -0.113296
329 2 4.10238 8.07579 6.01471 -0.0141531 0.0780037 -0.0339067
330 2 3.47976 6.70141 5.48915 0.00222723 -0.0169927 -0.0423447
334 3 2.26444 6.10427 4.49762 0.00257773 -0.0156904 0.0921839
335 2 1.40837 5.74511 4.78611 0.0267357 0.0504835 -0.099847
4 1 5.36515 6.17521 7.84395 -0.00514042 0.060105 0.238902
14 4 7.92267 8.81838 7.97628 -0.000617443 0.0499824 0.123243
34 3 6.71936 8.20887 7.02828 0.0156638 -0.0714631 0.0216421
38 3 9.04474 9.57132 7.0106 0.0754221 -0.032962 -0.00935131
186 3 6.62631 7.80983 4.39689 0.0296592 -0.0342327 -0.0042984
192 3 10.0796 5.90715 5.2829 0.0959037 -0.0440793 -0.0298054
199 2 8.63951 9.79005 5.18488 -0.0175851 -0.0349664 -0.0247761
203 2 5.76363 8.07486 4.02005 0.0215946 -0.00975805 0.029441
204 2 6.64484 8.15846 5.31156 -0.0626784 0.0116812 -0.0614601
215 2 9.44454 5.24439 5.59769 0.0107678 0.0903002 -0.0498271
216 2 9.65116 6.41876 4.56628 -0.0828853 -0.00839816 0.0359751
331 3 6.68923 5.56744 5.89066 0.0461111 -0.142984 -0.162551
332 2 6.55969 6.25922 5.21049 -0.0023077 0.0616999 0.00295624
7 1 2.73111 1.14295 10.7287 -0.0139524 0.0103012 -0.115295
9 4 0.132263 3.66558 10.7216 0.112497 -0.0794991 0.0485229
19 3 0.897306 2.39688 9.79784 -0.0562535 0.0923729 0.120385
24 3 4.55752 4.89065 9.80302 0.0125784 0.0903337 -0.0785165
28 3 1.99442 5.02784 8.8484 -0.0199018 0.0622111 0.095981
31 3 3.46476 2.32124 8.78062 0.0886976 0.0164812 0.0293501
43 3 1.36904 4.34351 11.6218 -0.0223678 -0.00179116 0.0258804
47 3 4.08392 2.9885 11.6402 0.0134615 -0.0101436 -0.0154364
5 1 7.91533 1.12942 10.7447 0.0599465 -0.0873336 -0.0706074
11 4 5.32303 3.66135 10.7199 -0.00283153 0.00407521 0.00808043
17 3 6.04571 2.36979 9.80542 0.0126235 -0.0486207 0.0439188
22 3 9.77853 4.94548 9.81528 -0.0502366 -0.0131242 -0.0190853
26 3 7.1537 4.93939 8.85186 -0.0515707 0.0331711 0.0157776
29 3 8.71672 2.33503 8.93992 0.0623806 0.102026 0.00396111
41 3 6.57918 4.35304 11.6083 -0.0442655 -0.0103083 0.035216
45 3 9.29821 2.99893 11.6533 0.0523972 0.0226956 0.00349438
8 1 2.77609 6.21713 10.7233 -0.0419462 -0.0186868 0.0137818
10 4 0.135214 8.76847 10.67 -0.0447405 0.1542 0.0809665
16 4 2.65945 8.69748 8.05211 -0.0734325 0.269305 -0.0361547
20 3 0.891563 7.46179 9.78767 0.0110569 -0.025359 0.0219907
23 3 4.54132 10.0384 9.80018 0.0286032 -0.0491785 0.141137
27 3 1.83308 10.0081 8.90543 0.0849973 -0.196467 0.115608
32 3 3.55097 7.47823 8.90198 0.0582898 -0.0315846 0.0665604
44 3 1.34722 9.43656 11.6087 0.00681776 0.0688848 0.0233677
48 3 4.09121 8.0866 11.6491 0.0493602 0.0545451 -0.0386782
6 1 7.88411 6.21172 10.6952 0.0542451 0.0611806 -0.0263289
12 4 5.32485 8.75868 10.7218 -0.0416551 0.0498853 0.00253333
18 3 6.10447 7.50655 9.85071 -0.0354853 -0.0824894 -0.136503
21 3 9.72771 10.0474 9.76868 0.0623721 -0.0577361 0.0399923
25 3 7.11324 10.086 8.89657 -0.017521 0.0618097 0.0864758
30 3 8.70652 7.46563 8.77967 0.00536184 0.00546144 0.110972
42 3 6.52764 9.45748 11.6554 -0.0255738 0.0257505 0.0184201
46 3 9.29102 8.12612 11.5842 -0.0215883 -0.0827271 0.0326414
59 1 2.72841 3.68908 13.6925 -0.0182521 0.0149355 -0.024025
65 4 0.129334 1.15274 13.6663 -0.0443508 0.00163267 0.011714
83 3 4.5926 2.42613 14.5803 -0.00363456 -0.0478964 -0.0259201
91 3 0.859743 4.95581 14.5653 -0.00656033 -0.00507821 0.0492862
103 3 3.46494 4.96255 15.5629 -0.00954658 0.0823274 0.0046815
111 3 1.98918 2.44646 15.5822 0.0352707 -0.0311749 -0.0312605
135 3 4.06456 0.470505 12.757 -0.0235961 -0.0164519 -0.00923517
143 3 1.3743 1.82296 12.7455 0.0576429 -0.0157627 -0.00679923
57 1 7.92782 3.70229 13.684 0.0342432 -0.0181145 -5.63865e-05
67 4 5.31838 1.15039 13.6643 -0.0960868 -0.0576994 0.0100356
81 3 9.79623 2.43714 14.5762 0.0252276 -0.0566664 -0.0244664
89 3 6.05697 4.95849 14.5649 -0.0236569 0.0597437 0.019819
101 3 8.64583 4.96608 15.5604 0.00261006 0.0356488 0.0113651
109 3 7.19701 2.43053 15.5664 -0.00146952 -0.0530834 0.00216933
133 3 9.26693 0.468388 12.7729 -0.0318538 -0.033914 -0.0461881
141 3 6.55688 1.84085 12.761 0.0403103 0.0562565 -0.0393646
60 1 2.73159 8.7834 13.6781 -0.0456195 -0.000761477 -0.0281559
66 4 0.13081 6.23845 13.658 0.0270382 -0.0312683 -0.0722474
84 3 4.59374 7.52402 14.5473 0.0266327 -0.101406 0.0406439
92 3 0.861268 10.054 14.5564 0.013275 0.0531986 0.0457695
104 3 3.45555 10.0661 15.5512 0.0176713 0.0461998 0.0167686
112 3 2.01182 7.52467 15.5737 0.0566959 -0.0748595 0.00843272
136 3 4.09169 5.53889 12.7516 -0.0341191 -0.0434517 0.0181492
144 3 1.37655 6.90776 12.7486 0.0495105 -0.0035118 0.0112992
58 1 7.92413 8.78161 13.6863 0.0399386 -0.00979334 -0.0299144
68 4 5.32858 6.23659 13.6605 0.0248443 -0.0528027 -0.0274111
82 3 9.79608 7.53044 14.5485 0.00786735 -0.0212998 0.0479521
90 3 6.05825 10.0472 14.5485 -0.0231523 0.0556163 0.064449
102 3 8.6538 10.058 15.5565 -0.0289506 0.082626 0.0397619
110 3 7.1927 7.52024 15.5615 0.013641 -0.0756647 0.0612137
134 3 9.27386 5.56625 12.7472 -0.0380514 -0.0294847 0.00924385
142 3 6.57382 6.90387 12.7441 0.0375559 -0.0459279 0.0172064
49 1 0.137272 1.1224 19.4117 0.00168101 0.0784585 0.0900141
53 1 0.138302 3.69561 16.4501 -0.000102248 0.0125383 0.0239668
75 4 2.7271 3.66715 19.4139 0.058685 -0.114473 0.0811699
79 4 2.73195 1.15331 16.4694 0.0276689 0.0464024 -0.1066
115 3 3.97928 1.82826 17.387 0.0252354 -0.00649206 -0.0272955
119 3 1.4735 3.02332 18.4886 -0.0352499 -0.0625265 -0.0554281
123 3 1.48928 0.465732 17.3617 -0.0593806 -0.0784576 0.068541
127 3 3.97183 4.37301 18.524 0.110118 0.0371316 -0.078414
51 1 5.35278 1.10815 19.3696 0.193068 0.0344835 0.190944
55 1 5.33537 3.69225 16.462 0.020774 0.0177959 0.051701
73 4 7.91387 3.61298 19.434 -0.130378 -0.020033 0.109827
77 4 7.92752 1.15173 16.468 0.0540367 0.0133007 -0.0600022
113 3 9.17037 1.83612 17.3784 0.0775296 0.003443 -0.0165821
117 3 6.69268 2.93926 18.4819 -0.0224407 0.0314948 -0.0721122
121 3 6.67044 0.45383 17.3534 -0.0459895 -0.0914276 -0.0241089
125 3 9.08384 4.41774 18.5594 0.0644676 0.0373001 -0.0632318
50 1 0.162535 6.23611 19.4643 0.0529773 -0.0764633 -0.0436356
54 1 0.135524 8.77135 16.449 0.00834201 -0.0164251 -0.0215111
76 4 2.74254 8.76426 19.4179 0.140073 0.0593676 0.00371971
80 4 2.74161 6.24122 16.4715 0.170471 0.0192242 -0.0477225
116 3 4.00338 6.91244 17.3873 -0.0537317 -0.00198611 -0.0793682
120 3 1.49168 8.12479 18.5017 0.00133155 -0.0246947 0.00550955
124 3 1.50363 5.56289 17.3678 -0.109763 -0.0375607 0.0593529
128 3 3.96617 9.44625 18.4873 -0.0344315 0.0300614 -0.0678642
52 1 5.2937 6.25061 19.403 -0.0887784 -0.0123269 0.177108
56 1 5.33345 8.77534 16.4416 0.0146566 0.00984596 0.0324436
74 4 7.92731 8.75548 19.3636 -0.112723 0.0933185 0.084549
78 4 7.92476 6.23977 16.4746 0.0147682 -0.0275076 -0.0521956
114 3 9.18902 6.91145 17.3569 0.0107455 -0.0110007 0.0590152
118 3 6.67765 8.09701 18.4431 0.0987482 0.0566631 0.00359669
122 3 6.68527 5.55056 17.3893 -0.0658873 -0.0337594 -0.0510104
126 3 9.14969 9.45035 18.4475 -0.0226893 -0.00891231 -0.0125539
63 1 2.79347 1.16337 22.0907 0.18238 0.249801 0.605255
69 4 0.248233 3.71976 22.0977 -0.102916 -0.159602 0.112367
87 3 0.958631 2.35376 21.2448 -0.146396 0.0681333 -0.0772982
100 3 2.02121 4.90094 20.3647 -0.00314253 0.0740635 -0.0328315
107 3 3.51414 2.37288 20.2774 0.0330407 0.220189 -0.114519
131 3 1.47376 4.34691 23.0342 -0.20115 -0.0380219 -0.0532751
139 3 4.4819 2.90748 22.9022 0.00614677 0.259379 -0.263224
61 1 7.95133 1.00708 22.2571 -0.137129 0.223397 -0.154962
71 4 5.77312 3.86216 21.9594 -1.14476 -0.719674 0.521166
85 3 6.1965 2.25829 21.3768 0.276151 -0.276548 -0.308727
94 3 9.78309 5.03073 21.2987 -0.0614194 0.108617 -0.0541472
98 3 6.99956 4.68054 20.4988 0.307183 0.264743 -0.224496
105 3 8.70713 2.37147 20.2993 0.231974 -0.0112094 0.0154412
129 3 6.76837 4.36583 23.1078 0.406193 0.330074 0.22956
137 3 9.54462 3.09008 23.1607 0.0616776 0.0344894 -0.0500593
314 2 9.41899 4.66831 24.04 0.00225524 0.0467569 0.0215805
64 1 2.83038 6.24675 22.3163 0.254695 -0.20043 -0.036106
70 4 0.203183 8.80022 22.1558 -0.113515 -0.117733 0.0611462
88 3 0.937081 7.48143 21.2989 -0.0001033 0.072521 -0.0453918
95 3 4.56402 10.0689 21.2327 0.16074 -0.0607935 -0.046195
96 3 4.64038 5.09602 21.4386 -0.230703 0.234107 -0.348033
99 3 2.00895 10.042 20.343 -0.0842943 -0.115132 -0.207059
108 3 3.49785 7.47302 20.2906 -0.0697491 0.108188 -0.100228
132 3 1.36241 9.49942 23.1097 -0.09232 -0.0497444 0.00605055
140 3 4.27099 8.0757 23.0437 -0.177833 -0.0145539 0.187826
62 1 8.06383 6.42239 22.2899 -0.128548 -0.315312 0.0131074
72 4 5.39939 8.77422 22.0548 0.171127 0.226351 0.0391654
86 3 6.16852 7.5218 21.1566 0.251229 -0.177133 -0.0935688
93 3 9.79609 10.0472 21.2428 0.0694586 0.0266326 -0.0335859
97 3 7.21858 10.0305 20.2988 0.0622981 -0.104285 -0.00524589
106 3 8.7034 7.46978 20.2343 0.0581757 -0.0908738 0.134102
130 3 6.61555 9.44161 22.9837 -0.222556 -0.123304 -0.0823133
138 3 9.36789 8.13746 23.0873 0.192732 0.0385195 -0.0829405
146 3 3.34379 0.854211 27.1931 -0.0870898 -0.0819989 0.00970671
149 2 3.70083 1.69604 27.5305 -0.00475005 0.00172979 0.00619874
150 2 3.62288 0.658007 26.2787 0.0544821 -0.0168256 0.027307
151 3 1.62377 2.10746 24.4645 -0.114033 -0.0279087 0.0271535
153 2 2.15779 2.00362 25.2563 0.0387423 0.0216233 0.0619109
154 2 1.58778 3.06831 24.2853 0.0365399 0.0125616 -0.00409192
168 2 1.78051 0.35272 27.739 -0.00799078 -0.000906654 0.014015
321 2 0.101766 1.05853 24.3598 -0.0122975 0.0170433 0.057964
358 3 1.55291 4.82463 26.3176 -0.00977914 0.124641 0.0105313
145 3 6.87538 1.42615 24.5484 0.0743282 -0.0101604 -0.0173299
147 2 7.33387 2.04288 25.1398 -0.044178 0.0446309 -0.0178619
148 2 6.86049 0.557616 24.9839 0.0131992 0.0115803 0.00974194
157 3 8.82001 2.92296 25.8976 -0.00182554 0.0358359 -0.0214206
159 2 8.3194 3.77123 26.0102 0.0273196 0.0112701 0.0014856
160 2 9.29619 3.01054 25.0569 -0.0357963 0.0465388 0.0493018
259 2 9.59603 2.61371 27.5592 -0.0385889 0.0244671 0.0165653
319 3 9.67675 0.539883 24.4999 -0.0329214 -0.131997 -0.0256536
320 2 9.20527 1.00346 25.1995 -0.0514057 -0.0540566 0.00252021
163 3 3.58891 6.39839 27.314 -0.0654009 0.0738171 -0.0914193
164 3 0.915809 10.1635 28.0049 -0.0261386 0.0223916 -0.0220788
165 2 4.45724 5.99333 27.5194 -0.0241667 -0.0575263 0.0291353
166 2 3.65862 7.32873 27.5942 0.0649526 0.0184785 0.045055
170 3 4.16616 5.63039 24.3805 -0.0858983 0.0675126 0.0134366
173 2 3.80746 5.92138 25.2297 0.0845182 -0.0121651 -0.0466226
174 2 5.03066 6.08176 24.3062 0.0132359 0.0123232 0.0683837
175 3 0.179955 8.57659 25.9308 -0.0395251 0.0429049 -0.0868106
176 3 1.37468 6.67462 24.4418 0.0941425 0.108237 0.181755
177 2 0.482365 9.15278 26.6653 -0.0384663 -0.0445295 0.0707136
179 2 1.53435 5.94657 25.0962 -0.050199 0.0218402 0.0141462
180 2 1.1497 7.47507 24.9587 -0.086847 -0.0581662 -0.0779834
316 3 3.45489 10.1004 24.6533 -0.14817 -0.152576 -0.0115002
317 2 2.56944 9.75833 24.4343 0.124731 0.0219644 -0.00511004
318 2 4.02956 9.36947 24.3728 -0.000398314 -0.0220728 0.0115671
359 2 2.24886 5.23121 26.8575 0.0547701 -0.0243953 -0.0218702
360 2 0.721058 5.11369 26.7312 -0.0314801 0.042494 -0.0257604
152 3 7.40915 9.09149 25.9174 0.0873497 -0.042772 -0.0354717
155 2 8.33819 8.87652 25.7833 0.00438789 0.0291232 0.0230699
156 2 7.23758 8.94382 26.8652 -0.0491413 0.0422986 0.0299568
158 3 7.57431 5.21911 26.2936 0.0413085 -0.0554009 -0.064299
161 2 8.33353 5.66446 26.726 0.0427892 0.00429939 -0.0503131
162 2 6.87646 5.09174 26.9701 -0.0312959 -0.0129853 0.0235236
169 3 6.68975 6.85195 24.3801 0.097177 0.0734647 0.0347352
171 2 6.78053 7.7519 24.7486 6.29263e-05 -0.0605453 0.0161943
172 2 7.06653 6.23495 25.0596 -0.0501594 -0.0233834 -0.0325971
178 2 10.2983 9.19039 25.2202 0.0425386 0.0203497 0.0909449
221 3 9.80456 6.24627 27.3367 -0.00695651 -0.0348008 0.0683596
258 2 9.99895 7.09841 26.9144 0.033506 0.0434505 0.0170063
313 3 9.32418 5.6233 24.1859 0.0344145 0.13384 0.0151028
315 2 10.222 6.02757 24.1749 -0.112494 -0.04672 0.075785
167 2 0.334588 0.760368 28.1384 -0.000418087 0.00237325 0.0478622
223 3 3.9442 3.04402 28.7362 0.000106115 -0.0167879 -0.0424852
227 3 1.36985 3.80412 29.8246 0.0438341 0.0545714 0.049056
253 2 0.092386 2.83689 28.8554 -0.0104358 0.0326204 0.0125322
256 2 3.07326 3.35631 29.0364 0.0112309 -0.0450564 0.0515597
262 2 4.41216 2.69049 29.5204 0.0232843 -0.000791961 0.0100105
267 2 0.949842 4.68383 29.8894 -0.0509957 -0.013682 0.00297921
271 2 5.13275 4.26854 28.3763 0.0131037 -0.0375376 0.0393639
272 2 1.48499 3.4886 30.7427 0.000143252 -0.0238965 -0.00503214
278 2 5.05118 1.62231 31.3822 -0.0525299 0.00311096 -0.0290227
220 3 9.84706 2.23684 28.4216 -0.00867144 -0.115749 -0.0456487
224 3 7.85253 0.952085 29.9378 -0.0179985 0.00512183 -0.0264594
226 3 5.71043 5.01911 28.1331 0.0232114 0.0116635 -0.0602801
231 3 5.5214 2.2341 30.8011 0.0031535 0.0352988 -0.0552736
260 2 8.46199 1.50456 29.4142 0.00654268 -0.0188107 0.0166044
265 2 8.75837 0.279953 31.2979 0.0395523 -0.0101266 -0.0143952
268 2 7.0841 1.49993 30.1857 0.00370046 -0.00271302 -0.0164056
281 2 5.62443 3.03556 31.3694 0.0139434 -0.055385 -0.0391536
218 3 0.853528 8.76881 30.4479 0.00801784 0.039619 -0.0226725
219 3 3.5016 8.8819 31.3643 -0.0246044 -0.0887335 0.0397168
242 3 4.1547 8.825 28.6097 -0.00507833 -0.0069945 0.0345817
250 2 3.81307 8.85866 30.4388 0.0282672 0.0111073 -0.0441876
257 2 0.908837 9.24714 29.599 -0.0194964 0.00152839 0.0370849
266 2 0.367241 7.11455 30.1929 0.0114232 0.00638848 0.0116276
295 2 3.85742 9.63046 28.1483 0.0274742 -0.013976 0.00945782
299 2 5.13129 8.86021 28.5726 0.0113043 -0.0189846 0.0453133
310 2 3.69645 9.75581 31.7414 -0.0315585 -0.00239283 0.0230863
312 2 1.75067 8.78796 30.827 -0.0127156 0.00724834 0.0161208
346 3 3.72392 6.11105 30.2601 0.0310127 0.0782489 0.0616332
347 2 3.39694 6.11072 29.3532 0.0478369 0.0179136 -0.0114044
348 2 3.17416 5.49718 30.7454 -0.0253975 -0.0586024 0.0241363
225 3 9.24026 10.1027 32.07 -0.0900849 -0.0722289 0.00564606
229 3 10.3807 6.22794 30.0082 -0.0120976 -0.00270362 0.00167881
233 3 6.49302 6.57477 30.2086 0.0162543 -0.040018 0.000569392
235 3 8.47854 5.98109 32.004 0.00909528 0.00275797 -0.0334117
248 3 6.88167 8.82801 28.6601 0.00199831 -0.0160093 -0.00825166
249 2 6.93444 8.05135 29.2483 0.0173452 0.00247648 0.0237244
252 2 7.26704 9.59109 29.1271 -0.010943 0.0267568 0.0293926
254 2 9.91798 6.33616 28.3052 0.00143024 -0.0120107 -0.0364956
263 2 9.99561 9.61497 31.6944 0.0250871 0.0177921 -0.00447443
269 2 9.70399 6.08534 30.7 0.0030963 -0.000450535 0.00524327
270 2 6.05326 5.43417 28.9486 -0.0697152 0.0178496 0.019246
276 2 7.11755 6.32431 30.9209 -0.0494275 0.00372925 -0.0422619
277 2 5.59018 6.54502 30.5599 0.0370265 0.0130796 0.0185861
230 3 2.79392 4.96105 34.137 0.0504197 0.0295208 -0.0289341
232 3 1.95591 2.98893 32.4218 -0.0108668 0.0848135 -0.0352937
240 3 4.74194 3.3887 35.0795 -0.09883 0.0134864 -0.141555
241 3 3.90207 1.08412 32.8086 0.0527576 0.0304041 0.0390772
246 3 3.52875 0.931285 35.5062 0.066855 -0.0536179 0.0637597
274 2 1.18167 2.58415 32.8683 -0.0214802 -0.0504445 0.0177388
279 2 3.48734 4.42146 34.5725 -0.00598017 -0.0235021 0.0501969
283 2 2.20593 3.75392 32.9803 -0.0266251 -0.043061 -0.0214385
287 2 3.23065 1.7744 32.61 -0.0436265 -0.0585475 -0.00935761
290 2 0.252189 1.44238 34.5396 0.0573842 -0.000281667 -0.016303
291 2 3.73526 0.868397 33.7501 -0.0351024 0.00513931 -0.0365629
301 2 4.40203 2.56403 35.4671 0.0349891 0.0264544 0.0742914
305 2 3.98057 0.240104 36.035 -0.0214226 0.0290924 -0.0395625
306 2 2.59697 0.92957 35.7636 0.020431 -0.0319278 0.0459193
236 3 5.63742 4.14932 32.6096 -0.0565784 0.0297839 -0.0148518
237 3 10.2599 1.84404 33.7472 0.0442395 0.0844145 -0.0591839
238 3 8.31954 3.81153 33.6828 0.0222764 0.000962325 0.00702681
244 3 6.95647 4.95684 35.8187 0.0685408 0.00277078 0.0632308
284 2 5.33481 5.06976 32.567 -0.0196395 -0.0560925 0.0304408
286 2 7.58041 3.25507 33.4065 0.00550143 -0.0332733 -0.0136028
289 2 9.97991 1.10062 33.1761 -0.00927186 -0.0234447 0.00143062
294 2 5.28475 3.79033 33.4424 0.0839229 0.0845403 0.00518786
297 2 5.413 3.75884 35.6747 -0.0234524 0.00508666 0.0402082
298 2 9.06316 3.19387 33.8057 0.0179217 0.0064827 -0.0316679
303 2 7.50884 4.59209 35.1003 -0.00424073 -0.00113435 -0.0273613
337 3 6.81889 1.35845 33.6795 -0.0434316 0.0185775 -0.0438193
338 2 7.25544 0.745752 33.0846 0.0764181 -0.0100382 -0.00582023
339 2 5.87438 1.31604 33.487 0.0372904 -0.027618 0.0400312
341 2 9.03589 1.42288 36.1013 -0.0254798 -0.00681243 0.0350049
342 2 7.64858 1.40686 35.3644 0.0510093 -0.00501317 -0.100022
189 3 0.0512349 8.00481 35.9691 -0.0752144 -0.073546 0.0396884
228 3 4.52808 6.72949 32.9503 -0.026259 0.0676329 0.00599618
264 2 4.20869 7.43059 32.355 -0.0479506 0.00649012 0.0124167
273 2 3.2792 5.69286 33.7087 0.00384351 0.00346257 0.0100393
275 2 5.06788 7.1393 33.6546 -0.0146718 -0.0502215 -0.0170617
296 2 1.91647 5.48317 35.5737 -0.0319438 -0.0112246 0.0259959
349 3 1.17976 9.43385 33.8306 0.0228114 0.0693081 -0.0407422
350 2 1.96199 9.0558 33.4323 0.00894407 -0.0531326 0.0190928
351 2 0.978435 8.90133 34.6129 -0.00418131 -0.0133523 0.0380176
209 2 9.68981 7.94477 35.3482 -0.00574153 -0.0193262 -0.0428702
234 3 6.14931 7.47961 35.0301 -0.0573009 0.0466109 0.0536388
239 3 8.58104 8.00751 33.8962 -0.0962128 -0.0113199 0.0746559
280 2 8.42864 5.15309 32.5219 -0.00761934 0.0235932 -0.0293337
282 2 5.76362 8.02959 35.7379 0.012916 0.00012134 -0.0155914
285 2 6.39971 6.61436 35.4146 -0.00981005 0.0033278 0.000272728
288 2 8.58245 6.69054 32.6673 -0.00750934 0.00992582 -0.0186372
292 2 8.72511 8.80615 33.3647 0.0646816 0.0361214 -0.0367904
302 2 7.67163 8.01172 34.2528 0.0549935 -0.027097 -0.008078
ITEM: TIMESTEP
100
ITEM: NUMBER OF ATOMS
360
ITEM: BOX BOUNDS pp pp pp
0.0000000000000000e+00 1.0390000000000001e+01
0.0000000000000000e+00 1.0180000000000000e+01
0.0000000000000000e+00 3.6170000000000002e+01
ITEM: ATOMS id type x y z fx fy fz
187 3 0.416358 3.82662 1.6246 -0.975075 -0.663537 -0.195159
205 2 0.812555 4.44904 1.0087 0.443547 0.831565 -0.733088
206 2 1.02172 3.77876 2.35029 0.684696 -0.115757 0.998492
222 3 0.873005 1.34224 0.360497 -0.115811 -1.92398 0.603332
251 2 0.725999 0.727438 1.14213 -0.0123123 0.895254 -1.33487
261 2 0.75558 2.23111 0.673181 -0.0744522 0.984523 0.748576
352 3 3.32851 4.79226 2.33104 -0.388994 0.467157 -0.816539
354 2 3.97235 4.18823 1.92458 -0.158766 0.199293 0.173269
188 3 8.42382 5.02656 2.1729 1.0983 -0.67267 -0.751166
202 2 7.67986 4.13494 3.35402 -0.0993663 -0.47359 0.453158
208 2 9.35011 4.65736 1.95906 -1.37726 0.457577 0.507813
309 2 7.60532 5.06668 0.359612 0.0347421 -0.0215476 0.118366
340 3 8.10088 1.34272 -0.0738987 -1.38915 -0.845253 -1.05945
343 3 5.52312 2.88745 1.83511 -0.0253921 1.19967 -0.426729
344 2 6.19334 3.42434 1.39158 -0.155636 -0.248095 0.340565
345 2 5.96271 2.04886 2.00881 -0.00723998 -0.613685 0.118769
355 3 6.79699 0.523522 2.05484 -0.129397 -0.564693 2.43906
356 2 7.32969 0.975245 1.40749 1.10279 0.0633079 -1.006
357 2 7.30828 0.418802 2.92185 -0.703763 0.163368 -1.56924
191 3 4.49862 9.059 3.18233 -0.574107 -0.0261645 0.34608
213 2 3.52124 8.95913 3.30925 0.623737 0.0366883 0.258385
243 3 1.47185 5.67973 0.0700371 0.123687 -0.220178 -1.05615
245 3 5.01712 9.23438 0.627068 1.37118 0.0843561 0.516232
293 2 0.767521 6.30399 -0.195266 0.180289 0.187 0.316298
300 2 4.50458 8.87065 1.35853 -0.210468 -0.120792 0.219497
304 2 0.561338 9.15776 2.76609 0.729847 -0.202193 0.300499
325 3 1.89859 8.72645 3.73336 -0.364073 -0.154739 0.0880367
336 2 2.67565 5.55636 3.77453 -0.84184 1.05027 1.17987
353 2 2.9388 5.35296 1.62519 0.449553 -0.680251 0.403219
190 3 8.89988 7.4024 3.54576 -0.0353696 0.305229 -0.631763
207 2 8.5393 5.90565 2.57122 0.328167 0.229961 0.134208
210 2 9.77715 8.25188 0.219938 0.0625832 0.151526 0.247431
211 2 9.29873 8.0896 2.96994 -0.0841227 -0.605859 0.290711
212 2 8.00281 7.72256 3.7932 -0.00532515 0.0111636 0.20491
247 3 10.191 9.46613 2.25367 -0.360222 0.0287182 -0.70947
308 2 5.76741 9.62277 1.17246 -0.686339 0.0542303 -0.685518
311 2 9.58222 9.85096 2.88912 -0.186647 0.518001 0.367097
1 1 0.084534 1.12403 7.93183 0.523438 -0.503086 0.46568
15 4 2.80599 3.79953 8.06491 -1.1906 -1.02559 -0.611698
35 3 1.65669 3.25119 7.00965 0.602836 0.0410137 0.680084
39 3 4.02395 4.34963 7.10797 0.270961 0.472993 0.0959082
182 3 1.95787 3.13316 4.21429 -0.248822 0.0217288 0.710541
183 3 1.80793 0.498463 5.75739 -0.633505 -0.178528 -0.0853903
195 2 2.02441 3.41504 5.15415 0.00259033 -0.0771611 -0.400411
196 2 2.88482 3.09882 3.92186 0.0618697 -0.010898 0.0984666
197 2 2.7217 0.239172 6.0403 -0.348708 0.484197 -0.0606989
198 2 1.75593 1.36497 5.33311 0.764194 -0.184167 0.0330816
217 3 4.66023 3.08158 4.52867 0.445909 0.146539 -0.658767
307 2 4.82189 3.66603 5.28131 -0.151922 -0.15408 0.0714703
324 2 0.313042 2.53492 4.66587 -0.232173 0.269818 0.0343951
3 1 5.24545 1.13327 8.0956 0.776154 0.102557 -1.54342
13 4 7.92441 3.59095 8.1097 0.200453 -0.563977 -1.57178
33 3 6.83055 2.95548 7.09641 -0.0449298 -0.43117 -0.0164324
37 3 9.22553 4.0998 7.14616 -0.110101 0.231485 0.258172
181 3 5.52326 0.632734 5.1275 0.945324 0.70309 -0.516468
184 3 8.4005 0.245927 4.32971 -0.0363858 -0.667969 1.32585
185 3 7.27245 3.60736 4.09597 0.696486 0.235841 -0.156677
193 2 6.49988 0.615016 4.99767 -0.813918 -0.13274 0.110872
194 2 5.27151 1.52835 4.77009 -0.132744 -0.406138 0.619266
200 2 8.75783 1.12937 4.55166 0.205812 -0.37364 0.0564423
201 2 8.00461 3.25854 4.63093 -0.43862 0.192583 -0.334735
255 2 5.34229 3.28555 3.84477 -0.595128 -0.0471232 0.553691
322 3 9.90338 2.36778 5.19439 -0.323077 -0.261317 0.011236
323 2 9.77132 3.12195 5.79616 0.109299 0.182451 0.154079
333 2 6.61094 4.80178 5.22338 0.456595 -1.69776 -0.638143
2 1 0.0556362 6.15145 8.05562 0.348099 0.275423 -0.280002
36 3 1.58562 8.00436 7.02524 0.399353 -0.126623 0.224244
40 3 3.78505 9.65126 7.04783 0.111679 -0.467717 0.0347719
214 2 4.7835 9.82644 3.71673 -0.154571 -0.302438 -0.0797115
326 2 1.72597 9.33922 4.47542 0.108504 -0.179834 0.153549
327 2 1.85512 7.79001 4.06531 0.170408 0.47196 -0.133221
328 3 4.24674 7.14554 6.0498 -0.196544 -1.27808 -0.560985
329 2 4.14217 8.0847 6.12531 -0.100141 1.43512 -0.0899348
330 2 3.44947 6.75529 5.62591 0.0237448 0.0850741 -0.155558
334 3 2.25517 6.19064 4.45337 0.918313 -0.928416 -0.807996
335 2 1.44442 5.80318 4.80902 -0.118383 -0.0591262 -0.239587
4 1 5.3815 6.16042 7.91487 0.143188 0.0872511 0.332097
14 4 7.89864 8.89338 7.97039 -0.206312 -0.611823 -0.145948
34 3 6.652 8.28828 7.07546 0.299685 -0.134692 0.302568
38 3 8.99204 9.54016 6.89923 0.0851677 0.234637 0.458677
186 3 6.5947 7.87678 4.56861 -0.0362093 0.17519 0.0109336
192 3 10.0064 5.91986 5.4058 0.490586 0.843992 -0.0848357
199 2 8.52114 9.86565 5.17624 0.0934076 1.02519 -1.3047
203 2 5.82931 8.06414 3.9997 -0.216226 0.207671 0.204762
204 2 6.45847 8.30814 5.45547 0.0481253 -0.446796 -0.62192
215 2 9.38895 5.27869 5.73556 -0.626649 -0.822359 0.204716
216 2 9.4759 6.61179 4.95229 0.398455 -0.190473 -0.299151
331 3 6.56834 5.51394 5.84496 -0.0138444 0.382262 1.17244
332 2 6.56337 6.28 5.27698 -0.0906146 1.44803 -0.465196
7 1 2.76598 1.12559 10.6878 -0.941329 0.054404 0.393757
9 4 0.0388847 3.5813 10.695 0.0557182 -0.459692 1.26574
19 3 0.865095 2.36565 9.79592 -0.307906 -0.234612 -0.618492
24 3 4.6303 4.87753 9.86367 -0.410356 -0.0183263 -0.407171
28 3 1.91407 5.09409 8.9222 0.847562 -0.738965 -0.647224
31 3 3.48529 2.31985 8.85683 -0.574657 0.672351 0.196076
43 3 1.286 4.16256 11.5863 0.0101585 0.442782 0.178379
47 3 4.16749 2.91399 11.6628 -0.470874 -0.177438 -0.134307
5 1 7.97586 1.15519 10.779 -0.415364 -0.61043 0.316572
11 4 5.38223 3.62308 10.7467 1.26655 1.38263 1.27213
17 3 6.1728 2.3721 9.84415 -0.674518 -0.00229935 -0.0711374
22 3 9.7255 4.95748 9.85142 -0.168199 -0.174088 0.179382
26 3 7.15063 4.9038 8.84834 -0.264773 1.31305 0.708958
29 3 8.65415 2.32397 9.07453 1.2717 0.327623 -0.446874
41 3 6.65383 4.30611 11.6894 -0.880731 -0.209924 -0.905637
45 3 9.29869 2.79323 11.7776 0.610523 1.09293 -1.25739
8 1 2.69745 6.307 10.7007 0.467727 -0.237975 0.327948
10 4 0.0241158 8.70153 10.6629 1.99658 0.973022 -0.0674918
16 4 2.68955 8.75144 7.98014 -1.54242 0.392437 -0.121966
20 3 0.926891 7.45544 9.8255 -1.03889 -0.235562 -0.270578
23 3 4.51388 10.1358 9.78009 0.17151 -0.621856 0.466552
27 3 1.74021 9.95591 8.83414 0.590458 0.656417 0.137196
32 3 3.49052 7.56772 8.94438 0.729285 -0.369319 -0.0196102
44 3 1.24692 9.35534 11.5742 -0.329577 0.0912624 -0.0237005
48 3 3.97435 8.11483 11.5749 0.789378 0.449076 -0.46875
6 1 7.9331 6.28555 10.7244 -0.767568 -0.686065 0.298167
12 4 5.27543 8.78587 10.6639 -0.408039 -0.719418 0.484755
18 3 6.12674 7.57335 9.75341 -0.299408 0.513141 0.705372
21 3 9.72458 10.0034 9.72294 -0.516015 -0.0198792 -0.0503776
25 3 7.13936 10.2325 8.806 0.215045 -0.630369 0.426978
30 3 8.6899 7.47341 8.77871 -0.0496282 0.435162 0.16484
42 3 6.35589 9.46767 11.6883 0.198272 -0.198162 -0.42638
46 3 9.23417 7.99784 11.6256 -0.452554 -0.0177085 0.0376257
59 1 2.74876 3.67188 13.641 0.312244 -0.211865 0.217076
65 4 0.134117 1.0329 13.7049 0.304711 0.222287 -1.29443
83 3 4.55694 2.46371 14.6187 -0.188174 -0.236517 -0.224526
91 3 0.882578 4.76592 14.4762 0.221906 0.339594 0.466483
103 3 3.58489 5.13194 15.481 -0.808528 -0.403854 -0.00851822
111 3 1.99342 2.53542 15.5963 0.637564 -0.729127 -0.0922245
135 3 4.08216 0.385854 12.8204 -0.138025 0.542436 -0.342713
143 3 1.42083 1.71192 12.8405 0.100426 -0.0325713 0.0426043